/*--------------------------------*- C++ -*----------------------------------*\
| =========                 |                                                 |
| \\      /  F ield         | OpenFOAM: The Open Source CFD Toolbox           |
|  \\    /   O peration     | Version:  4.x                                   |
|   \\  /    A nd           | Web:      www.OpenFOAM.org                      |
|    \\/     M anipulation  |                                                 |
\*---------------------------------------------------------------------------*/
FoamFile
{
    version     2.0;
    format      ascii;
    class       volScalarField;
    location    "1262";
    object      p;
}
// * * * * * * * * * * * * * * * * * * * * * * * * * * * * * * * * * * * * * //

dimensions      [0 2 -2 0 0 0 0];

internalField   nonuniform List<scalar> 
9089
(
5.65128
5.65125
5.65113
5.65094
5.65069
5.65036
5.64995
5.64946
5.64889
5.64822
5.64746
5.64659
5.64561
5.64451
5.64328
5.64191
5.6404
5.63873
5.63691
5.63491
5.63274
5.63039
5.62786
5.62516
5.62228
5.61924
5.61606
5.61274
5.60934
5.60586
5.60237
5.59891
5.59554
5.59231
5.5893
5.58658
5.58421
5.58229
5.58089
5.58009
5.57996
5.58048
5.58196
5.58433
5.58768
5.59212
5.59772
5.60459
5.61285
5.62266
5.63418
5.64764
5.66332
5.68158
5.7029
5.72786
5.75731
5.79222
5.83411
5.88428
5.9453
6.01479
6.09347
6.14055
3.71875
3.74163
3.77254
3.81439
3.85639
3.89071
3.93202
3.94376
-0.457022
-0.453739
-0.428654
-0.381773
-0.292135
-0.219284
-0.0740617
-0.0710243
0.155064
5.65129
5.65126
5.65114
5.65095
5.65069
5.65036
5.64995
5.64947
5.64889
5.64823
5.64746
5.6466
5.64562
5.64452
5.64329
5.64192
5.64041
5.63875
5.63692
5.63492
5.63275
5.6304
5.62788
5.62517
5.62229
5.61925
5.61606
5.61275
5.60934
5.60586
5.60236
5.5989
5.59553
5.59229
5.58928
5.58655
5.58418
5.58225
5.58085
5.58004
5.57989
5.58041
5.58189
5.58425
5.5876
5.59202
5.59761
5.60447
5.61272
5.6225
5.63399
5.64741
5.66304
5.68122
5.70242
5.72721
5.75637
5.79083
5.83196
5.88089
5.93988
6.0068
6.0856
6.12657
3.71484
3.73913
3.7712
3.81396
3.85673
3.89206
3.93376
3.94601
-0.461495
-0.456845
-0.431027
-0.382806
-0.293916
-0.219214
-0.0771279
-0.0690635
0.148644
5.6513
5.65127
5.65115
5.65096
5.6507
5.65037
5.64997
5.64948
5.64891
5.64824
5.64748
5.64661
5.64563
5.64453
5.64331
5.64194
5.64043
5.63877
5.63694
5.63495
5.63278
5.63043
5.6279
5.62519
5.62231
5.61927
5.61608
5.61276
5.60934
5.60586
5.60236
5.59889
5.5955
5.59226
5.58924
5.5865
5.58412
5.58218
5.58077
5.57995
5.57976
5.5803
5.58176
5.58411
5.58744
5.59185
5.59742
5.60426
5.61248
5.62222
5.63366
5.64701
5.66255
5.6806
5.70161
5.72611
5.75484
5.78862
5.82863
5.87573
5.9317
5.99393
6.06934
6.12096
6.16339
3.70796
3.73534
3.76906
3.81335
3.8574
3.89383
3.93664
3.94929
-0.470197
-0.461865
-0.434514
-0.384696
-0.296059
-0.220282
-0.0798184
-0.070231
0.145173
5.65131
5.65128
5.65116
5.65097
5.65072
5.65039
5.64998
5.6495
5.64892
5.64826
5.6475
5.64664
5.64566
5.64456
5.64333
5.64197
5.64046
5.6388
5.63697
5.63498
5.63281
5.63046
5.62793
5.62522
5.62234
5.6193
5.6161
5.61278
5.60935
5.60586
5.60235
5.59887
5.59547
5.59221
5.58917
5.58642
5.58402
5.58207
5.58064
5.57981
5.57959
5.58013
5.58157
5.58389
5.58721
5.59159
5.59713
5.60393
5.61211
5.6218
5.63317
5.64643
5.66183
5.6797
5.70044
5.72457
5.75274
5.78566
5.82434
5.86933
5.92189
5.97877
6.04343
6.08675
6.04498
3.69795
3.73017
3.76622
3.81254
3.85824
3.89605
3.94045
3.95322
-0.483762
-0.468199
-0.438807
-0.387078
-0.298597
-0.221869
-0.0831057
-0.0723841
0.141074
5.65133
5.6513
5.65118
5.65099
5.65074
5.65041
5.65001
5.64952
5.64895
5.64829
5.64753
5.64667
5.64569
5.6446
5.64337
5.64201
5.64051
5.63884
5.63702
5.63503
5.63286
5.63051
5.62798
5.62527
5.62238
5.61933
5.61613
5.6128
5.60936
5.60586
5.60233
5.59884
5.59542
5.59215
5.58909
5.58631
5.5839
5.58193
5.58047
5.57961
5.57936
5.57989
5.58131
5.58361
5.58689
5.59125
5.59675
5.60351
5.61163
5.62124
5.63252
5.64565
5.66089
5.67853
5.69897
5.72265
5.75017
5.78216
5.81942
5.86234
5.9117
5.96472
6.0204
6.06616
6.00846
3.68571
3.72382
3.76286
3.81154
3.85911
3.89846
3.94441
3.95664
-0.4993
-0.474651
-0.44335
-0.389403
-0.301102
-0.223518
-0.0870698
-0.0746324
0.135389
5.65135
5.65133
5.6512
5.65102
5.65077
5.65044
5.65003
5.64955
5.64898
5.64832
5.64757
5.64671
5.64573
5.64464
5.64342
5.64206
5.64056
5.6389
5.63708
5.63509
5.63292
5.63057
5.62804
5.62532
5.62244
5.61938
5.61617
5.61283
5.60938
5.60586
5.60231
5.5988
5.59536
5.59207
5.58898
5.58618
5.58374
5.58174
5.58026
5.57936
5.57908
5.5796
5.58098
5.58325
5.5865
5.59082
5.59627
5.60297
5.61102
5.62055
5.63172
5.64471
5.65975
5.67713
5.69721
5.72039
5.74722
5.77823
5.81409
5.85507
5.9015
5.95131
5.99882
6.04009
5.97978
3.67168
3.7165
3.75916
3.81032
3.85979
3.90076
3.94782
3.95802
-0.524441
-0.497523
-0.481931
-0.447289
-0.391278
-0.303276
-0.224999
-0.0914324
-0.0767029
0.128187
5.65138
5.65135
5.65123
5.65105
5.6508
5.65047
5.65007
5.64959
5.64902
5.64836
5.64761
5.64675
5.64578
5.64469
5.64348
5.64212
5.64062
5.63897
5.63715
5.63516
5.63299
5.63064
5.62811
5.62539
5.6225
5.61943
5.61621
5.61286
5.6094
5.60586
5.60229
5.59875
5.59529
5.59197
5.58885
5.58602
5.58355
5.58152
5.58
5.57907
5.57875
5.57925
5.58059
5.58282
5.58603
5.5903
5.59571
5.60234
5.61031
5.61974
5.63077
5.64359
5.65841
5.6755
5.69518
5.71783
5.74393
5.77393
5.80839
5.84748
5.89111
5.93758
5.97771
6.0098
5.94035
3.65586
3.70851
3.75529
3.8088
3.8599
3.90234
3.94933
3.9551
-0.583775
-0.507224
-0.490338
-0.450468
-0.392824
-0.305133
-0.226226
-0.0959787
-0.0783659
0.119498
5.65142
5.65139
5.65127
5.65108
5.65083
5.65051
5.65011
5.64963
5.64907
5.64841
5.64766
5.64681
5.64584
5.64476
5.64354
5.64219
5.6407
5.63904
5.63723
5.63524
5.63307
5.63073
5.62819
5.62547
5.62257
5.6195
5.61627
5.6129
5.60942
5.60586
5.60227
5.5987
5.59521
5.59185
5.58871
5.58584
5.58333
5.58126
5.5797
5.57872
5.57837
5.57883
5.58013
5.58232
5.58549
5.5897
5.59504
5.6016
5.60948
5.61879
5.62968
5.64231
5.65688
5.67365
5.6929
5.71498
5.74029
5.76924
5.80225
5.83939
5.88016
5.92284
5.95604
5.9766
5.89009
3.63948
3.70032
3.75137
3.80681
3.85883
3.9024
3.94778
3.94323
-0.607822
-0.517805
-0.49749
-0.453477
-0.394335
-0.306778
-0.227145
-0.100533
-0.0794064
0.109267
5.65145
5.65143
5.65131
5.65112
5.65087
5.65055
5.65015
5.64968
5.64912
5.64847
5.64772
5.64687
5.64591
5.64483
5.64362
5.64227
5.64078
5.63913
5.63732
5.63533
5.63317
5.63082
5.62828
5.62556
5.62265
5.61957
5.61633
5.61294
5.60944
5.60586
5.60224
5.59864
5.59512
5.59172
5.58854
5.58563
5.58307
5.58096
5.57935
5.57833
5.57794
5.57836
5.57961
5.58176
5.58487
5.58902
5.59429
5.60076
5.60854
5.61772
5.62845
5.64087
5.65517
5.67159
5.69037
5.71183
5.73631
5.76413
5.79558
5.83059
5.86823
5.90648
5.9327
5.94032
5.8297
3.62538
3.69216
3.74745
3.80406
3.85557
3.89931
3.94186
3.91353
-0.629531
-0.531531
-0.504392
-0.456806
-0.395762
-0.308078
-0.227514
-0.10493
-0.0796224
0.0974373
5.6515
5.65147
5.65135
5.65117
5.65092
5.6506
5.65021
5.64973
5.64918
5.64853
5.64779
5.64694
5.64599
5.64491
5.64371
5.64236
5.64088
5.63923
5.63742
5.63544
5.63328
5.63093
5.62839
5.62566
5.62275
5.61966
5.6164
5.613
5.60947
5.60587
5.60222
5.59858
5.59501
5.59158
5.58834
5.58539
5.58279
5.58062
5.57896
5.57789
5.57745
5.57783
5.57903
5.58112
5.58417
5.58825
5.59344
5.59982
5.60748
5.61653
5.62707
5.63927
5.65328
5.66931
5.6876
5.70839
5.73197
5.75857
5.78831
5.82093
5.85503
5.88807
5.90679
5.90305
5.7584
3.61706
3.6842
3.74384
3.79996
3.84883
3.89103
3.93162
3.86639
-0.654649
-0.546404
-0.510738
-0.459864
-0.396526
-0.30865
-0.226855
-0.108928
-0.0788513
0.0840602
5.65154
5.65152
5.6514
5.65122
5.65097
5.65065
5.65026
5.64979
5.64924
5.6486
5.64786
5.64702
5.64607
5.645
5.6438
5.64247
5.64098
5.63934
5.63754
5.63556
5.6334
5.63105
5.62851
5.62578
5.62286
5.61975
5.61648
5.61305
5.60951
5.60587
5.60218
5.59851
5.5949
5.59142
5.58813
5.58512
5.58247
5.58025
5.57853
5.5774
5.57692
5.57724
5.57838
5.58041
5.58339
5.5874
5.59251
5.59879
5.60632
5.61521
5.62556
5.63751
5.65121
5.66683
5.68458
5.70465
5.72726
5.75254
5.78042
5.8104
5.84059
5.86775
5.87812
5.86802
5.67648
3.45893
3.60458
3.67951
3.74042
3.79324
3.83743
3.8767
3.91085
3.87975
3.67032
-0.680637
-0.560265
-0.516161
-0.461756
-0.395824
-0.307937
-0.224654
-0.112173
-0.0769985
0.0692281
5.6516
5.65157
5.65145
5.65127
5.65103
5.65071
5.65033
5.64986
5.64931
5.64867
5.64794
5.64711
5.64616
5.6451
5.64391
5.64258
5.6411
5.63947
5.63767
5.63569
5.63353
5.63119
5.62864
5.6259
5.62297
5.61986
5.61657
5.61312
5.60955
5.60588
5.60215
5.59843
5.59477
5.59124
5.5879
5.58483
5.58212
5.57983
5.57806
5.57686
5.57633
5.57659
5.57767
5.57963
5.58254
5.58647
5.59149
5.59765
5.60506
5.61378
5.62392
5.63561
5.64897
5.66415
5.68132
5.70063
5.72221
5.74607
5.77197
5.79913
5.82526
5.84646
5.8485
5.82773
5.70902
5.53374
3.47669
3.61429
3.67751
3.73461
3.78193
3.82024
3.85632
3.8737
3.8842
3.37133
-0.69906
-0.5717
-0.519717
-0.461451
-0.392897
-0.305251
-0.220581
-0.114224
-0.0739895
0.0531193
5.65165
5.65162
5.65151
5.65133
5.65109
5.65078
5.65039
5.64993
5.64939
5.64875
5.64803
5.6472
5.64626
5.6452
5.64402
5.6427
5.64123
5.6396
5.63781
5.63584
5.63368
5.63133
5.62879
5.62604
5.6231
5.61997
5.61666
5.61319
5.60959
5.60588
5.60212
5.59835
5.59464
5.59105
5.58764
5.58451
5.58173
5.57938
5.57754
5.57627
5.57568
5.57588
5.57689
5.57878
5.58161
5.58546
5.59037
5.59642
5.60368
5.61223
5.62215
5.63356
5.64656
5.66127
5.67783
5.69633
5.71683
5.7392
5.76305
5.78732
5.80943
5.82491
5.82047
5.78013
5.66291
5.28496
3.47502
3.60237
3.66902
3.72297
3.76387
3.79601
3.82841
3.83099
3.82694
3.23528
-0.946084
-0.706237
-0.578614
-0.519821
-0.458002
-0.387136
-0.300018
-0.21449
-0.114803
-0.0697803
0.0360314
5.65171
5.65169
5.65157
5.6514
5.65116
5.65085
5.65047
5.65001
5.64947
5.64884
5.64812
5.6473
5.64637
5.64532
5.64414
5.64283
5.64137
5.63975
5.63796
5.63599
5.63384
5.63149
5.62894
5.6262
5.62325
5.6201
5.61677
5.61327
5.60964
5.60589
5.60208
5.59826
5.59449
5.59084
5.58737
5.58417
5.58132
5.57889
5.57697
5.57564
5.57498
5.57511
5.57604
5.57786
5.58061
5.58437
5.58917
5.5951
5.6022
5.61056
5.62025
5.63136
5.64398
5.65821
5.67413
5.69179
5.71116
5.732
5.75375
5.77513
5.79332
5.80327
5.79315
5.74028
5.61752
5.20677
3.48015
3.58452
3.65571
3.70403
3.73719
3.76313
3.79031
3.77853
3.74654
3.09536
-0.957602
-0.692775
-0.581004
-0.516815
-0.451449
-0.378307
-0.291991
-0.20623
-0.113835
-0.0643852
0.0183406
5.65178
5.65175
5.65164
5.65146
5.65123
5.65092
5.65055
5.65009
5.64956
5.64894
5.64822
5.64741
5.64649
5.64545
5.64428
5.64297
5.64152
5.6399
5.63812
5.63616
5.63401
5.63167
5.62912
5.62636
5.6234
5.62024
5.61689
5.61336
5.60969
5.6059
5.60204
5.59817
5.59433
5.59061
5.58707
5.5838
5.58087
5.57836
5.57637
5.57496
5.57423
5.57428
5.57514
5.57687
5.57954
5.58319
5.58789
5.59368
5.60063
5.60879
5.61823
5.62903
5.64126
5.65498
5.67023
5.68702
5.70523
5.72451
5.74416
5.76266
5.77703
5.7816
5.76543
5.70377
5.5799
5.1427
3.2351
3.44399
3.57135
3.63785
3.67632
3.70004
3.71999
3.74055
3.71491
3.65017
3.11362
2.38404
-0.968732
-0.706693
-0.584768
-0.511803
-0.442021
-0.366395
-0.281022
-0.195919
-0.111305
-0.0578764
0.000523924
5.65185
5.65182
5.65171
5.65154
5.6513
5.651
5.65063
5.65018
5.64965
5.64904
5.64833
5.64753
5.64661
5.64558
5.64442
5.64312
5.64168
5.64007
5.6383
5.63634
5.6342
5.63185
5.6293
5.62654
5.62357
5.62039
5.61702
5.61346
5.60975
5.60592
5.60201
5.59807
5.59417
5.59037
5.58676
5.5834
5.58039
5.5778
5.57572
5.57423
5.57343
5.57339
5.57417
5.57582
5.57839
5.58194
5.58652
5.59217
5.59895
5.6069
5.61609
5.62657
5.63838
5.65158
5.66615
5.68205
5.69908
5.71679
5.73435
5.75002
5.76069
5.76014
5.73804
5.66836
5.53482
5.19463
5.01787
3.35513
3.46071
3.56399
3.61233
3.63758
3.65079
3.6654
3.67866
3.64244
3.5408
3.13169
1.86807
-1.46052
-1.00097
-0.717412
-0.585387
-0.503548
-0.429058
-0.351088
-0.267109
-0.183835
-0.107216
-0.050395
-0.0166953
5.65192
5.65189
5.65178
5.65162
5.65139
5.65109
5.65072
5.65028
5.64976
5.64915
5.64845
5.64765
5.64675
5.64572
5.64457
5.64328
5.64185
5.64025
5.63849
5.63654
5.6344
5.63205
5.6295
5.62673
5.62375
5.62055
5.61715
5.61357
5.60982
5.60594
5.60197
5.59797
5.59399
5.59012
5.58642
5.58297
5.57987
5.57719
5.57503
5.57345
5.57257
5.57244
5.57313
5.57469
5.57717
5.58061
5.58507
5.59057
5.59717
5.60492
5.61384
5.62398
5.63537
5.64802
5.6619
5.67689
5.69274
5.70889
5.72439
5.73731
5.74444
5.73914
5.71169
5.63549
5.48465
5.17
4.74716
3.31348
3.32985
3.45667
3.54426
3.57586
3.58594
3.58876
3.59855
3.60467
3.56052
3.43186
3.02314
1.87696
0.662462
-1.74804
-1.45667
-0.953024
-0.709746
-0.579209
-0.490232
-0.411677
-0.332191
-0.250474
-0.170251
-0.101714
-0.0420375
-0.0320612
5.652
5.65197
5.65186
5.6517
5.65147
5.65118
5.65081
5.65038
5.64986
5.64926
5.64857
5.64778
5.64689
5.64587
5.64473
5.64346
5.64203
5.64045
5.63869
5.63675
5.63461
5.63227
5.62971
5.62694
5.62394
5.62073
5.6173
5.61368
5.60989
5.60596
5.60193
5.59786
5.59381
5.58985
5.58606
5.58252
5.57932
5.57655
5.57429
5.57262
5.57165
5.57144
5.57203
5.5735
5.57587
5.5792
5.58353
5.58889
5.59531
5.60283
5.61147
5.62127
5.63223
5.64433
5.65751
5.67159
5.68625
5.70086
5.71435
5.72463
5.72844
5.71883
5.68672
5.60482
5.4515
5.15104
4.76452
4.51085
3.51736
3.34546
3.46628
3.51821
3.5285
3.52094
3.51419
3.51941
3.51959
3.47081
3.32378
2.90735
1.95868
0.503536
-0.420693
-1.50005
-1.65418
-1.39034
-0.928703
-0.702195
-0.567432
-0.471646
-0.389838
-0.310101
-0.231378
-0.154438
-0.0954136
-0.0329661
-0.045463
5.65208
5.65206
5.65195
5.65179
5.65156
5.65127
5.65091
5.65048
5.64998
5.64938
5.6487
5.64792
5.64704
5.64603
5.64491
5.64364
5.64222
5.64065
5.6389
5.63697
5.63483
5.6325
5.62994
5.62716
5.62415
5.62092
5.61747
5.61381
5.60997
5.60599
5.6019
5.59775
5.59361
5.58957
5.58568
5.58204
5.57874
5.57587
5.57351
5.57174
5.57068
5.57037
5.57087
5.57224
5.57451
5.57772
5.58191
5.58711
5.59335
5.60064
5.60901
5.61846
5.62898
5.64052
5.65298
5.66615
5.67965
5.69275
5.7043
5.71209
5.71283
5.69944
5.6636
5.57808
5.43083
5.13025
4.77586
4.43621
4.23109
3.82631
3.55372
3.53821
3.36164
3.47066
3.48559
3.47022
3.4435
3.42739
3.42869
3.4257
3.3763
3.22298
2.83348
1.93367
0.64767
-0.387696
-1.37678
-1.536
-1.32115
-0.905534
-0.686941
-0.548649
-0.447752
-0.363875
-0.28539
-0.209318
-0.136717
-0.0876571
-0.0239513
-0.0574318
5.65217
5.65214
5.65204
5.65188
5.65166
5.65137
5.65102
5.6506
5.6501
5.64951
5.64884
5.64807
5.64719
5.6462
5.64509
5.64383
5.64243
5.64086
5.63913
5.6372
5.63508
5.63274
5.63018
5.62739
5.62437
5.62112
5.61764
5.61395
5.61007
5.60602
5.60186
5.59763
5.59341
5.58927
5.58528
5.58154
5.57813
5.57515
5.57268
5.57082
5.56965
5.56925
5.56965
5.57091
5.57307
5.57616
5.58022
5.58526
5.5913
5.59836
5.60644
5.61553
5.62561
5.63659
5.64835
5.66062
5.67296
5.6846
5.6943
5.69977
5.69775
5.68115
5.64252
5.55572
5.41552
5.12741
4.78882
4.44597
4.20422
3.85767
3.64007
3.58027
3.41182
3.4759
3.44686
3.40138
3.35486
3.32884
3.32798
3.32633
3.27972
3.13039
2.76838
1.93995
0.782236
-0.283527
-1.22536
-1.44216
-1.24931
-0.873357
-0.659932
-0.521667
-0.418323
-0.333882
-0.257534
-0.185808
-0.117863
-0.0798377
-0.016405
-0.066739
5.65226
5.65223
5.65213
5.65197
5.65176
5.65148
5.65113
5.65071
5.65022
5.64965
5.64898
5.64822
5.64736
5.64638
5.64528
5.64404
5.64264
5.64109
5.63936
5.63745
5.63533
5.633
5.63044
5.62764
5.62461
5.62134
5.61783
5.6141
5.61016
5.60606
5.60183
5.59752
5.5932
5.58896
5.58486
5.58101
5.57749
5.57439
5.57181
5.56984
5.56857
5.56806
5.56836
5.56951
5.57156
5.57453
5.57845
5.58332
5.58917
5.59599
5.60378
5.61251
5.62214
5.63256
5.64361
5.65499
5.66622
5.67645
5.68441
5.68775
5.68327
5.66401
5.62338
5.537
5.40307
5.13512
4.81433
4.48984
4.22273
3.90907
3.7041
3.61378
3.46194
3.47913
3.40147
3.32333
3.25558
3.21985
3.22005
3.22439
3.18454
3.04523
2.71062
1.97849
0.909191
-0.133585
-1.05096
-1.32625
-1.17061
-0.833773
-0.623952
-0.486795
-0.383341
-0.300222
-0.227022
-0.162128
-0.0998705
-0.0726753
-0.0104956
-0.0730048
5.65235
5.65233
5.65223
5.65207
5.65186
5.65158
5.65124
5.65083
5.65035
5.64979
5.64913
5.64839
5.64753
5.64657
5.64548
5.64425
5.64287
5.64133
5.63962
5.63771
5.6356
5.63327
5.63071
5.62791
5.62487
5.62157
5.61803
5.61426
5.61027
5.60611
5.6018
5.5974
5.59299
5.58863
5.58443
5.58045
5.57681
5.57359
5.5709
5.56881
5.56743
5.56681
5.567
5.56805
5.56998
5.57282
5.57659
5.5813
5.58695
5.59354
5.60103
5.6094
5.61858
5.62844
5.6388
5.64931
5.65946
5.66835
5.67468
5.67607
5.66944
5.64804
5.60605
5.52122
5.39315
5.14747
4.84875
4.53853
4.27142
3.9785
3.77762
3.67255
3.51746
3.48163
3.34972
3.23762
3.1467
3.10321
3.10869
3.12216
3.09412
2.96852
2.6669
2.02784
1.04208
0.0313887
-0.873974
-1.20154
-1.08986
-0.788101
-0.582303
-0.446057
-0.344139
-0.263401
-0.195788
-0.139601
-0.0840544
-0.0653273
-0.0053223
-0.0763587
5.65245
5.65243
5.65233
5.65218
5.65197
5.6517
5.65136
5.65096
5.65049
5.64993
5.64929
5.64855
5.64772
5.64676
5.64569
5.64447
5.64311
5.64158
5.63988
5.63799
5.63588
5.63356
5.631
5.62819
5.62513
5.62182
5.61825
5.61443
5.61039
5.60616
5.60177
5.59728
5.59276
5.5883
5.58397
5.57987
5.5761
5.57276
5.56993
5.56774
5.56624
5.56551
5.56558
5.56651
5.56833
5.57104
5.57467
5.57921
5.58466
5.591
5.5982
5.60621
5.61494
5.62425
5.63392
5.64359
5.6527
5.66032
5.66514
5.66478
5.65628
5.63321
5.59041
5.5079
5.38574
5.16254
4.8879
4.59521
4.33769
4.06465
3.86743
3.74698
3.57757
3.48372
3.29233
3.14511
3.03065
2.98069
2.99695
3.02241
3.01027
2.90366
2.63949
2.08307
1.1774
0.191713
-0.71452
-1.08042
-1.01373
-0.738504
-0.535802
-0.400786
-0.301968
-0.227381
-0.166571
-0.119585
-0.0696681
-0.0577784
-0.00101676
-0.0771428
5.65255
5.65253
5.65243
5.65228
5.65208
5.65182
5.65149
5.6511
5.65063
5.65008
5.64945
5.64873
5.64791
5.64697
5.6459
5.64471
5.64336
5.64185
5.64016
5.63827
5.63618
5.63386
5.6313
5.62849
5.62542
5.62208
5.61848
5.61462
5.61052
5.60622
5.60175
5.59716
5.59254
5.58795
5.58349
5.57926
5.57535
5.57188
5.56893
5.56661
5.56499
5.56414
5.5641
5.56491
5.56661
5.56919
5.57267
5.57704
5.58228
5.58838
5.59528
5.60293
5.61122
5.61999
5.62899
5.63784
5.64595
5.65238
5.65581
5.65389
5.64381
5.61948
5.57634
5.49668
5.38082
5.17929
4.92956
4.65888
4.41547
4.16336
3.969
3.83292
3.64192
3.48547
3.22927
3.04652
2.908
2.85568
2.88799
2.92842
2.93474
2.85123
2.62671
2.14415
1.30743
0.337089
-0.584537
-0.974951
-0.946645
-0.686378
-0.486095
-0.355377
-0.261387
-0.194628
-0.14064
-0.10121
-0.0569632
-0.0505846
0.00235908
-0.075765
5.65266
5.65264
5.65254
5.6524
5.6522
5.65194
5.65162
5.65123
5.65078
5.65024
5.64963
5.64891
5.6481
5.64718
5.64613
5.64495
5.64362
5.64212
5.64045
5.63858
5.63649
5.63418
5.63162
5.62881
5.62572
5.62236
5.61873
5.61482
5.61067
5.60629
5.60173
5.59704
5.5923
5.58759
5.58299
5.57862
5.57458
5.57096
5.56788
5.56542
5.56368
5.56271
5.56255
5.56325
5.56482
5.56727
5.5706
5.57479
5.57984
5.58569
5.5923
5.59958
5.60743
5.61566
5.62402
5.63207
5.63924
5.64456
5.64671
5.64341
5.632
5.6068
5.56376
5.48738
5.37819
5.19678
4.97229
4.72606
4.50016
4.26966
4.07813
3.92705
3.70988
3.4866
3.15897
2.94435
2.78147
2.73326
2.78517
2.84288
2.86934
2.81043
2.6265
2.21146
1.42905
0.463262
-0.491502
-0.896393
-0.892848
-0.637687
-0.438152
-0.312601
-0.224726
-0.164799
-0.117354
-0.0849842
-0.0463949
-0.0441829
0.00484744
-0.0727208
5.65277
5.65275
5.65266
5.65251
5.65232
5.65207
5.65175
5.65138
5.65093
5.65041
5.6498
5.64911
5.64831
5.6474
5.64637
5.64521
5.64389
5.64241
5.64075
5.6389
5.63682
5.63452
5.63196
5.62914
5.62605
5.62266
5.61899
5.61504
5.61083
5.60637
5.60172
5.59692
5.59206
5.58721
5.58248
5.57796
5.57376
5.57
5.56678
5.56419
5.56231
5.56122
5.56094
5.56151
5.56296
5.56527
5.56845
5.57248
5.57732
5.58293
5.58924
5.59617
5.60359
5.61129
5.61901
5.62632
5.63259
5.63687
5.63786
5.63336
5.62086
5.59511
5.55256
5.47978
5.37751
5.21468
5.01467
4.79423
4.58814
4.37939
4.19147
4.02614
3.78025
3.48632
3.0824
2.84109
2.65528
2.61807
2.69174
2.76797
2.81442
2.78219
2.63838
2.2848
1.54316
0.569095
-0.435917
-0.854095
-0.854322
-0.596015
-0.395222
-0.272917
-0.191361
-0.138546
-0.0976633
-0.0715781
-0.0380835
-0.0388166
0.00652904
-0.0684993
5.65288
5.65286
5.65277
5.65263
5.65244
5.6522
5.65189
5.65152
5.65109
5.65058
5.64999
5.6493
5.64852
5.64763
5.64662
5.64547
5.64417
5.64271
5.64107
5.63923
5.63717
5.63487
5.63232
5.6295
5.62639
5.62298
5.61928
5.61528
5.611
5.60646
5.60171
5.59681
5.59181
5.58683
5.58194
5.57727
5.57292
5.569
5.56563
5.5629
5.56089
5.55966
5.55926
5.55971
5.56103
5.56321
5.56624
5.57009
5.57473
5.58009
5.58612
5.5927
5.59969
5.60688
5.61399
5.62057
5.62599
5.62932
5.62926
5.62373
5.61036
5.58438
5.54266
5.47372
5.3785
5.23286
5.05587
4.86138
4.67674
4.48955
4.30708
4.12887
3.85214
3.48406
2.99982
2.74033
2.53296
2.5145
2.61036
2.70499
2.76996
2.76612
2.66053
2.36284
1.64959
0.654582
-0.411532
-0.857452
-0.831086
-0.561563
-0.357788
-0.23776
-0.162812
-0.116889
-0.0821171
-0.0612177
-0.0319548
-0.0345789
0.00749831
-0.0635859
5.653
5.65298
5.65289
5.65276
5.65257
5.65233
5.65204
5.65168
5.65125
5.65075
5.65017
5.64951
5.64874
5.64787
5.64687
5.64575
5.64447
5.64303
5.6414
5.63958
5.63753
5.63524
5.63269
5.62987
5.62675
5.62332
5.61958
5.61553
5.61118
5.60656
5.60171
5.59669
5.59157
5.58643
5.58139
5.57655
5.57204
5.56796
5.56443
5.56155
5.55941
5.55805
5.55752
5.55785
5.55904
5.56108
5.56396
5.56764
5.57207
5.5772
5.58293
5.58917
5.59574
5.60244
5.60896
5.61484
5.61947
5.62191
5.62092
5.61451
5.60049
5.57454
5.53394
5.46903
5.38092
5.25121
5.09571
4.92616
4.76372
4.59818
4.42371
4.2353
3.92524
3.48247
2.91134
2.64589
2.42031
2.42506
2.54279
2.65388
2.73671
2.75987
2.69003
2.44347
1.74803
0.718212
-0.413831
-0.90754
-0.825028
-0.537016
-0.327934
-0.208629
-0.140091
-0.100228
-0.0707184
-0.0538111
-0.0278479
-0.0314731
0.00783788
-0.0583964
5.65312
5.6531
5.65302
5.65289
5.65271
5.65247
5.65218
5.65184
5.65142
5.65094
5.65037
5.64972
5.64897
5.64812
5.64714
5.64603
5.64478
5.64335
5.64175
5.63994
5.63791
5.63563
5.63309
5.63026
5.62713
5.62368
5.6199
5.6158
5.61139
5.60668
5.60173
5.59658
5.59131
5.58603
5.58082
5.57581
5.57112
5.56687
5.56319
5.56015
5.55786
5.55637
5.55571
5.55591
5.55697
5.55888
5.56161
5.56512
5.56935
5.57424
5.57969
5.58558
5.59175
5.59797
5.60392
5.60915
5.61304
5.61467
5.61285
5.60571
5.59122
5.56553
5.52633
5.46554
5.38453
5.2696
5.13413
4.98823
4.8479
4.70423
4.53948
4.34484
3.99816
3.48115
2.81942
2.56025
2.32385
2.3509
2.4895
2.6136
2.71488
2.76036
2.72381
2.52406
1.83945
0.761786
-0.455358
-0.98338
-0.83473
-0.524219
-0.306424
-0.186373
-0.123444
-0.0884872
-0.0631941
-0.0491067
-0.0255054
-0.0293854
0.00762961
-0.053261
5.65325
5.65323
5.65314
5.65302
5.65284
5.65262
5.65234
5.652
5.6516
5.65112
5.65057
5.64994
5.64921
5.64837
5.64742
5.64633
5.64509
5.64369
5.64211
5.64032
5.6383
5.63604
5.6335
5.63067
5.62753
5.62405
5.62024
5.61609
5.61161
5.60681
5.60175
5.59647
5.59106
5.58561
5.58023
5.57504
5.57017
5.56575
5.56189
5.5587
5.55625
5.55462
5.55383
5.55391
5.55484
5.55661
5.55919
5.56253
5.56657
5.57122
5.5764
5.58196
5.58773
5.59348
5.59889
5.6035
5.60669
5.60758
5.60503
5.5973
5.58253
5.55731
5.51971
5.46313
5.38914
5.28789
5.17102
5.04748
4.92888
4.80697
4.65335
4.45767
4.06815
3.48152
2.72502
2.486
2.24583
2.29128
2.44946
2.58425
2.70218
2.76494
2.75889
2.60387
1.92291
0.799466
-0.534866
-1.06763
-0.859823
-0.523264
-0.292869
-0.171317
-0.112578
-0.0812358
-0.0590158
-0.0466646
-0.0246379
-0.028169
0.00696285
-0.0484148
5.65337
5.65335
5.65327
5.65315
5.65298
5.65276
5.65249
5.65216
5.65177
5.65132
5.65078
5.65016
5.64945
5.64863
5.6477
5.64663
5.64542
5.64404
5.64248
5.64071
5.63871
5.63646
5.63393
5.6311
5.62795
5.62445
5.62061
5.6164
5.61184
5.60696
5.60178
5.59637
5.59081
5.58518
5.57962
5.57424
5.56918
5.56457
5.56054
5.55718
5.55459
5.55281
5.55189
5.55184
5.55264
5.55428
5.55671
5.55988
5.56373
5.56815
5.57305
5.57829
5.58368
5.58898
5.59386
5.59789
5.60044
5.60066
5.59748
5.58927
5.57437
5.54979
5.51397
5.46163
5.39454
5.306
5.20639
5.1038
5.00642
4.90618
4.76555
4.57491
4.13375
3.49906
2.63666
2.45056
2.18263
2.23553
2.41651
2.56527
2.69562
2.77124
2.79294
2.6877
1.96964
0.84997
-0.619571
-1.17194
-0.908634
-0.534764
-0.287124
-0.163076
-0.106642
-0.0777009
-0.0575664
-0.0459568
-0.0249169
-0.0276318
0.00593555
-0.0440094
5.6535
5.65348
5.65341
5.65329
5.65313
5.65292
5.65265
5.65234
5.65196
5.65151
5.65099
5.65039
5.6497
5.64891
5.64799
5.64695
5.64576
5.64441
5.64287
5.64112
5.63914
5.6369
5.63438
5.63155
5.62839
5.62488
5.62099
5.61673
5.6121
5.60712
5.60183
5.59628
5.59055
5.58475
5.57899
5.57342
5.56816
5.56336
5.55914
5.55561
5.55285
5.55093
5.54988
5.5497
5.55037
5.55188
5.55417
5.55717
5.56083
5.56503
5.56966
5.57458
5.5796
5.58447
5.58886
5.59233
5.59428
5.5939
5.59018
5.58161
5.56672
5.54293
5.50904
5.46091
5.40055
5.32383
5.24022
5.15722
5.08043
5.00178
4.87647
4.69695
4.20138
3.55467
2.5913
2.51101
2.13755
2.15938
2.35721
2.54889
2.69269
2.7776
2.82705
2.76228
1.91804
0.875357
-0.674772
-1.30317
-1.02121
-0.568706
-0.289214
-0.160279
-0.104464
-0.0766704
-0.0580045
-0.0464495
-0.0259956
-0.0275805
0.00464671
-0.0401274
5.65364
5.65362
5.65354
5.65343
5.65327
5.65307
5.65282
5.65251
5.65215
5.65172
5.65121
5.65063
5.64996
5.64918
5.6483
5.64728
5.64611
5.64478
5.64327
5.64154
5.63958
5.63736
5.63485
5.63203
5.62886
5.62532
5.6214
5.61709
5.61238
5.6073
5.60189
5.59619
5.5903
5.58431
5.57835
5.57257
5.5671
5.56209
5.55768
5.55397
5.55106
5.54899
5.5478
5.54749
5.54804
5.54941
5.55156
5.5544
5.55787
5.56185
5.56622
5.57083
5.57549
5.57995
5.58387
5.58682
5.58823
5.58731
5.58312
5.5743
5.55953
5.53666
5.50479
5.46084
5.40701
5.34127
5.27251
5.20777
5.15094
5.09378
4.98638
4.82091
4.2933
3.58672
2.5518
2.33654
2.52411
2.69028
2.78313
2.86476
2.73529
2.09652
-1.06685
-0.61276
-0.296734
-0.160297
-0.104883
-0.0770479
-0.0592896
-0.0476551
-0.0275275
-0.0278466
0.00319137
-0.0367968
5.65377
5.65375
5.65368
5.65357
5.65342
5.65323
5.65299
5.65269
5.65234
5.65192
5.65144
5.65088
5.65022
5.64947
5.64861
5.64761
5.64648
5.64517
5.64368
5.64198
5.64005
5.63784
5.63535
5.63253
5.62935
5.6258
5.62184
5.61747
5.61269
5.60751
5.60196
5.59611
5.59004
5.58386
5.57769
5.57169
5.566
5.56078
5.55617
5.55228
5.54919
5.54697
5.54565
5.54521
5.54563
5.54688
5.54889
5.55158
5.55486
5.55863
5.56275
5.56706
5.57138
5.57544
5.57891
5.58138
5.58228
5.58088
5.5763
5.56732
5.55278
5.53091
5.50115
5.46129
5.41374
5.35821
5.30321
5.25549
5.21796
5.18201
5.0945
4.94128
4.42547
3.55514
2.96092
2.5398
2.69362
2.78668
2.891
2.73531
-0.58331
-0.295804
-0.159853
-0.106508
-0.0783157
-0.0606834
-0.0491319
-0.0292135
-0.028292
0.00165529
-0.0340082
5.65391
5.65389
5.65383
5.65372
5.65358
5.65339
5.65316
5.65287
5.65254
5.65214
5.65167
5.65113
5.6505
5.64977
5.64893
5.64796
5.64685
5.64558
5.64411
5.64244
5.64053
5.63835
5.63586
5.63305
5.62987
5.62629
5.6223
5.61788
5.61302
5.60773
5.60205
5.59605
5.58979
5.5834
5.57701
5.57078
5.56486
5.55942
5.5546
5.55052
5.54726
5.54489
5.54342
5.54286
5.54316
5.54428
5.54615
5.54869
5.5518
5.55536
5.55923
5.56326
5.56725
5.57093
5.57398
5.57599
5.57643
5.57461
5.56971
5.56064
5.54642
5.52563
5.498
5.46214
5.42061
5.37455
5.33229
5.30038
5.2815
5.26634
5.20005
5.06102
4.5403
3.4975
2.52489
2.68597
2.78637
2.89211
2.79611
-0.583882
-0.306867
-0.159719
-0.107803
-0.0797436
-0.0620558
-0.0505115
-0.0308285
-0.0288006
0.000112025
-0.0317249
5.65405
5.65404
5.65397
5.65387
5.65373
5.65356
5.65333
5.65306
5.65274
5.65236
5.65191
5.65138
5.65078
5.65007
5.64926
5.64832
5.64724
5.64599
5.64456
5.64291
5.64103
5.63887
5.6364
5.63359
5.63041
5.62682
5.62279
5.61831
5.61337
5.60798
5.60217
5.59599
5.58954
5.58294
5.57632
5.56984
5.56368
5.55801
5.55297
5.54869
5.54526
5.54273
5.54113
5.54044
5.54062
5.54162
5.54336
5.54575
5.54869
5.55205
5.55569
5.55944
5.56311
5.56643
5.56908
5.57067
5.57069
5.56849
5.56333
5.55424
5.54041
5.52074
5.49528
5.46327
5.42747
5.39017
5.35968
5.3424
5.34136
5.34652
5.30399
5.19032
4.57994
3.97568
2.69783
2.79115
2.87282
2.89722
-0.297527
-0.154389
-0.107361
-0.0804468
-0.0631026
-0.0515955
-0.0322242
-0.0292817
-0.00137895
-0.0298993
5.65419
5.65418
5.65412
5.65402
5.65389
5.65372
5.65351
5.65325
5.65294
5.65258
5.65215
5.65165
5.65106
5.65038
5.6496
5.64869
5.64763
5.64642
5.64502
5.6434
5.64154
5.63941
5.63696
5.63416
5.63098
5.62737
5.62331
5.61878
5.61375
5.60825
5.6023
5.59595
5.5893
5.58247
5.57561
5.56888
5.56247
5.55655
5.55128
5.5468
5.54319
5.5405
5.53876
5.53794
5.53801
5.53889
5.5405
5.54275
5.54553
5.5487
5.55211
5.5556
5.55896
5.56194
5.56422
5.56541
5.56505
5.56252
5.55715
5.54811
5.53472
5.5162
5.49287
5.46459
5.43417
5.40496
5.38527
5.38144
5.39721
5.42211
5.40708
5.31591
4.54416
2.70615
2.7912
2.8596
-0.281947
-0.145672
-0.105305
-0.0802668
-0.0635781
-0.0522388
-0.0333152
-0.0296761
-0.00276991
-0.0284873
5.65434
5.65433
5.65427
5.65418
5.65406
5.65389
5.65369
5.65345
5.65315
5.65281
5.65239
5.65191
5.65135
5.6507
5.64994
5.64906
5.64804
5.64686
5.64549
5.64391
5.64208
5.63997
5.63754
5.63476
5.63158
5.62796
5.62386
5.61927
5.61416
5.60855
5.60245
5.59593
5.58907
5.582
5.57488
5.56788
5.5612
5.55503
5.54953
5.54483
5.54104
5.5382
5.53632
5.53538
5.53533
5.5361
5.53759
5.53971
5.54232
5.54531
5.5485
5.55174
5.55481
5.55746
5.55939
5.56022
5.55951
5.55669
5.55117
5.54222
5.5293
5.51194
5.49071
5.46597
5.44059
5.41879
5.40898
5.41733
5.44865
5.49172
5.50469
5.44242
4.73913
2.71919
2.77875
2.84943
-0.258289
-0.137981
-0.101913
-0.0794546
-0.063484
-0.0523827
-0.0340764
-0.0299516
-0.00405266
-0.0274423
5.65449
5.65448
5.65442
5.65434
5.65422
5.65407
5.65388
5.65365
5.65337
5.65304
5.65265
5.65219
5.65165
5.65103
5.6503
5.64945
5.64846
5.64731
5.64598
5.64443
5.64264
5.64056
5.63815
5.63538
5.6322
5.62857
5.62445
5.6198
5.61461
5.60888
5.60263
5.59592
5.58884
5.58152
5.57413
5.56686
5.5599
5.55346
5.54771
5.5428
5.53882
5.53581
5.53379
5.53273
5.53258
5.53324
5.53462
5.5366
5.53907
5.54188
5.54487
5.54787
5.55066
5.55301
5.5546
5.5551
5.55406
5.55099
5.54536
5.53654
5.52413
5.50793
5.4887
5.4673
5.44661
5.43157
5.43077
5.45012
5.49583
5.55479
5.5962
5.57739
4.86289
2.78202
2.83645
-0.211044
-0.135042
-0.096851
-0.0778596
-0.0627471
-0.0520251
-0.0345124