/*--------------------------------*- C++ -*----------------------------------*\
| =========                 |                                                 |
| \\      /  F ield         | OpenFOAM: The Open Source CFD Toolbox           |
|  \\    /   O peration     | Version:  4.x                                   |
|   \\  /    A nd           | Web:      www.OpenFOAM.org                      |
|    \\/     M anipulation  |                                                 |
\*---------------------------------------------------------------------------*/
FoamFile
{
    version     2.0;
    format      ascii;
    class       surfaceScalarField;
    location    "1262";
    object      phi;
}
// * * * * * * * * * * * * * * * * * * * * * * * * * * * * * * * * * * * * * //

dimensions      [0 3 -1 0 0 0 0];

internalField   nonuniform List<scalar> 
17852
(
2.50008e-11
-8.45877e-16
2.50033e-11
-2.50001e-15
2.50076e-11
-4.21952e-15
2.50135e-11
-5.95537e-15
2.50213e-11
-7.75401e-15
2.50309e-11
-9.6298e-15
2.50425e-11
-1.15983e-14
2.50562e-11
-1.36778e-14
2.50721e-11
-1.58852e-14
2.50903e-11
-1.82364e-14
2.5111e-11
-2.07465e-14
2.51345e-11
-2.3429e-14
2.51608e-11
-2.62956e-14
2.51901e-11
-2.93547e-14
2.52227e-11
-3.26115e-14
2.52588e-11
-3.60663e-14
2.52985e-11
-3.97139e-14
2.53421e-11
-4.35416e-14
2.53896e-11
-4.75286e-14
2.54412e-11
-5.16438e-14
2.54971e-11
-5.58446e-14
2.55572e-11
-6.00757e-14
2.56214e-11
-6.42671e-14
2.56898e-11
-6.8334e-14
2.57619e-11
-7.21758e-14
2.58376e-11
-7.56769e-14
2.59163e-11
-7.87064e-14
2.59974e-11
-8.11249e-14
2.60802e-11
-8.27747e-14
2.61637e-11
-8.35169e-14
2.62469e-11
-8.31663e-14
2.63284e-11
-8.15511e-14
2.6407e-11
-7.8561e-14
2.64811e-11
-7.40553e-14
2.6549e-11
-6.79333e-14
2.66091e-11
-6.01055e-14
2.66596e-11
-5.05104e-14
2.66987e-11
-3.90667e-14
2.67244e-11
-2.57222e-14
2.67343e-11
-9.84843e-15
2.67279e-11
6.36383e-15
2.67036e-11
2.43117e-14
2.66588e-11
4.48226e-14
2.65915e-11
6.72768e-14
2.64996e-11
9.1851e-14
2.63808e-11
1.18794e-13
2.62324e-11
1.48466e-13
2.6051e-11
1.81385e-13
2.58327e-11
2.1827e-13
2.55726e-11
2.6011e-13
2.52643e-11
3.08275e-13
2.48997e-11
3.64606e-13
2.44679e-11
4.31846e-13
2.39603e-11
5.07585e-13
2.33447e-11
6.15563e-13
2.26049e-11
7.39786e-13
2.16997e-11
9.05207e-13
2.05534e-11
1.14638e-12
1.90756e-11
1.47779e-12
1.70986e-11
1.97696e-12
1.43657e-11
2.73294e-12
1.05571e-11
3.80859e-12
5.38335e-12
5.17373e-12
5.38335e-12
-8.77753e-13
8.77753e-13
-1.23897e-12
3.61214e-13
-9.08901e-13
-3.30064e-13
-2.52851e-13
-6.56049e-13
3.77659e-13
-6.3051e-13
7.48649e-13
-3.7099e-13
6.8443e-13
6.42195e-14
6.84431e-13
-2.08427e-12
2.08428e-12
-4.17426e-12
2.09e-12
-5.23609e-12
1.06183e-12
-5.1306e-12
-1.05488e-13
-3.94401e-12
-1.18659e-12
-1.53289e-12
-2.41112e-12
1.55653e-12
-3.08943e-12
5.88756e-12
-4.33103e-12
-4.20449e-12
2.50008e-11
-1.67945e-15
2.50033e-11
-5.01548e-15
2.50076e-11
-8.42924e-15
2.50135e-11
-1.19064e-14
2.50213e-11
-1.55028e-14
2.50309e-11
-1.92523e-14
2.50425e-11
-2.31883e-14
2.50561e-11
-2.73462e-14
2.5072e-11
-3.17598e-14
2.50902e-11
-3.64611e-14
2.5111e-11
-4.14804e-14
2.51344e-11
-4.68448e-14
2.51607e-11
-5.25773e-14
2.519e-11
-5.86952e-14
2.52226e-11
-6.52088e-14
2.52587e-11
-7.2119e-14
2.52984e-11
-7.94151e-14
2.53419e-11
-8.70722e-14
2.53894e-11
-9.50485e-14
2.54411e-11
-1.03282e-13
2.54969e-11
-1.11688e-13
2.5557e-11
-1.20155e-13
2.56213e-11
-1.28544e-13
2.56896e-11
-1.36685e-13
2.57618e-11
-1.44377e-13
2.58375e-11
-1.51389e-13
2.59163e-11
-1.57458e-13
2.59974e-11
-1.62305e-13
2.60803e-11
-1.65618e-13
2.61639e-11
-1.67111e-13
2.62471e-11
-1.66418e-13
2.63288e-11
-1.63201e-13
2.64075e-11
-1.57228e-13
2.64816e-11
-1.48223e-13
2.65497e-11
-1.35981e-13
2.66099e-11
-1.20327e-13
2.66605e-11
-1.01126e-13
2.66997e-11
-7.82237e-14
2.67254e-11
-5.14671e-14
2.67356e-11
-2.00301e-14
2.67295e-11
1.2439e-14
2.67052e-11
4.86176e-14
2.66605e-11
8.9504e-14
2.65934e-11
1.34407e-13
2.65017e-11
1.8352e-13
2.63832e-11
2.37363e-13
2.6235e-11
2.96646e-13
2.60475e-11
3.68911e-13
2.58297e-11
4.35975e-13
2.55704e-11
5.19434e-13
2.52632e-11
6.15458e-13
2.49002e-11
7.27676e-13
2.44769e-11
8.55155e-13
2.39608e-11
1.02365e-12
2.3363e-11
1.21339e-12
2.26384e-11
1.46439e-12
2.17442e-11
1.7994e-12
2.06484e-11
2.2421e-12
1.92548e-11
2.87147e-12
1.74559e-11
3.77582e-12
1.50441e-11
5.1447e-12
1.17445e-11
7.10821e-12
7.1229e-12
9.79534e-12
1.25062e-11
-7.58268e-13
1.63602e-12
-1.02951e-12
6.32458e-13
-6.32724e-13
-7.26851e-13
7.55964e-14
-1.36437e-12
7.25821e-13
-1.28073e-12
1.04409e-12
-6.89263e-13
8.54469e-13
2.53844e-13
1.5389e-12
-1.96099e-12
4.04526e-12
-4.00271e-12
4.13173e-12
-4.97979e-12
2.03891e-12
-4.76905e-12
-3.16221e-13
-3.43116e-12
-2.52448e-12
-9.85594e-13
-4.85668e-12
2.27213e-12
-6.34715e-12
6.3931e-12
-8.45199e-12
-8.69486e-12
2.50008e-11
-2.51289e-15
2.50033e-11
-7.52596e-15
2.50075e-11
-1.2633e-14
2.50135e-11
-1.78484e-14
2.50212e-11
-2.32401e-14
2.50308e-11
-2.8861e-14
2.50424e-11
-3.4762e-14
2.50561e-11
-4.0996e-14
2.50719e-11
-4.76135e-14
2.50901e-11
-5.46628e-14
2.51108e-11
-6.21894e-14
2.51342e-11
-7.02341e-14
2.51605e-11
-7.88313e-14
2.51898e-11
-8.80075e-14
2.52223e-11
-9.77779e-14
2.52584e-11
-1.08144e-13
2.5298e-11
-1.19091e-13
2.53416e-11
-1.3058e-13
2.53891e-11
-1.4255e-13
2.54407e-11
-1.54908e-13
2.54965e-11
-1.67527e-13
2.55566e-11
-1.80241e-13
2.56209e-11
-1.9284e-13
2.56893e-11
-2.05069e-13
2.57615e-11
-2.16628e-13
2.58373e-11
-2.27168e-13
2.59162e-11
-2.36298e-13
2.59974e-11
-2.43594e-13
2.60804e-11
-2.48592e-13
2.61642e-11
-2.50858e-13
2.62476e-11
-2.49844e-13
2.63294e-11
-2.45045e-13
2.64083e-11
-2.36105e-13
2.64827e-11
-2.22612e-13
2.6551e-11
-2.04259e-13
2.66114e-11
-1.80778e-13
2.66623e-11
-1.51961e-13
2.67016e-11
-1.17572e-13
2.67275e-11
-7.73736e-14
2.67382e-11
-3.07499e-14
2.67326e-11
1.81282e-14
2.67085e-11
7.27071e-14
2.6664e-11
1.33952e-13
2.65972e-11
2.01243e-13
2.65059e-11
2.74843e-13
2.63811e-11
3.62106e-13
2.62335e-11
4.44264e-13
2.60597e-11
5.42681e-13
2.58364e-11
6.59298e-13
2.55783e-11
7.77576e-13
2.52729e-11
9.20846e-13
2.49124e-11
1.08819e-12
2.44805e-11
1.28701e-12
2.39823e-11
1.52187e-12
2.33815e-11
1.81414e-12
2.26717e-11
2.1742e-12
2.18129e-11
2.65825e-12
2.07747e-11
3.28033e-12
1.94948e-11
4.15133e-12
1.79145e-11
5.35616e-12
1.59484e-11
7.11072e-12
1.34911e-11
9.56554e-12
1.00267e-11
1.32598e-11
6.73798e-12
1.57949e-11
6.73798e-12
-5.46739e-13
2.18276e-12
-6.27419e-13
7.13138e-13
-8.5719e-14
-1.26855e-12
7.17191e-13
-2.16728e-12
1.38535e-12
-1.94889e-12
1.62327e-12
-9.27183e-13
1.1953e-12
6.81808e-13
2.7342e-12
-1.92535e-12
5.97061e-12
-3.77242e-12
5.97881e-12
-4.4904e-12
2.75689e-12
-4.00079e-12
-8.05825e-13
-2.42801e-12
-4.09727e-12
1.8257e-13
-7.46726e-12
3.53492e-12
-9.6995e-12
7.65376e-12
-1.25708e-11
-1.3064e-11
2.50008e-11
-3.34494e-15
2.50033e-11
-1.00303e-14
2.50075e-11
-1.68274e-14
2.50135e-11
-2.3777e-14
2.50212e-11
-3.09605e-14
2.50308e-11
-3.84489e-14
2.50423e-11
-4.63114e-14
2.50559e-11
-5.46178e-14
2.50718e-11
-6.34358e-14
2.50899e-11
-7.28301e-14
2.51106e-11
-8.28611e-14
2.51339e-11
-9.35836e-14
2.51602e-11
-1.05044e-13
2.51894e-11
-1.17277e-13
2.5222e-11
-1.30304e-13
2.52579e-11
-1.44128e-13
2.52976e-11
-1.58728e-13
2.53411e-11
-1.74054e-13
2.53885e-11
-1.90025e-13
2.54401e-11
-2.06517e-13
2.5496e-11
-2.23361e-13
2.55561e-11
-2.40335e-13
2.56204e-11
-2.57162e-13
2.56888e-11
-2.73502e-13
2.57611e-11
-2.88952e-13
2.5837e-11
-3.03049e-13
2.5916e-11
-3.15269e-13
2.59974e-11
-3.25047e-13
2.60806e-11
-3.31762e-13
2.61646e-11
-3.34833e-13
2.62483e-11
-3.3353e-13
2.63304e-11
-3.27179e-13
2.64096e-11
-3.15297e-13
2.64843e-11
-2.97336e-13
2.6553e-11
-2.72881e-13
2.66137e-11
-2.41577e-13
2.66649e-11
-2.03131e-13
2.67046e-11
-1.5724e-13
2.67308e-11
-1.0363e-13
2.67422e-11
-4.21014e-14
2.6737e-11
2.33176e-14
2.67133e-11
9.64213e-14
2.66692e-11
1.78017e-13
2.66028e-11
2.67637e-13
2.65054e-11
3.72275e-13
2.63945e-11
4.73014e-13
2.62476e-11
5.91162e-13
2.60617e-11
7.28567e-13
2.58462e-11
8.74848e-13
2.55897e-11
1.03399e-12
2.52802e-11
1.23034e-12
2.49169e-11
1.45158e-12
2.44959e-11
1.70798e-12
2.39928e-11
2.02498e-12
2.34086e-11
2.39833e-12
2.27036e-11
2.8792e-12
2.18708e-11
3.49101e-12
2.08634e-11
4.28775e-12
1.96618e-11
5.35291e-12
1.82004e-11
6.81761e-12
1.64258e-11
8.88535e-12
1.42882e-11
1.17031e-11
1.14451e-11
1.61029e-11
7.62253e-12
1.96175e-11
1.43605e-11
-2.54148e-13
2.43691e-12
-5.85034e-14
5.17494e-13
6.98537e-13
-2.02559e-12
1.6374e-12
-3.10614e-12
2.32413e-12
-2.63562e-12
2.43952e-12
-1.04257e-12
1.68102e-12
1.44031e-12
4.41522e-12
-2.22457e-12
8.19519e-12
-3.55422e-12
7.30847e-12
-3.7339e-12
2.93657e-12
-2.79608e-12
-1.74365e-12
-8.88145e-13
-6.0052e-12
1.9222e-12
-1.02776e-11
5.38146e-12
-1.31588e-11
9.47638e-12
-1.66658e-11
-1.72666e-11
2.50008e-11
-4.17481e-15
2.50033e-11
-1.25268e-14
2.50075e-11
-2.10094e-14
2.50134e-11
-2.9688e-14
2.50211e-11
-3.86581e-14
2.50307e-11
-4.80092e-14
2.50422e-11
-5.78282e-14
2.50558e-11
-6.82024e-14
2.50716e-11
-7.92164e-14
2.50897e-11
-9.09513e-14
2.51103e-11
-1.03483e-13
2.51336e-11
-1.1688e-13
2.51598e-11
-1.31201e-13
2.5189e-11
-1.4649e-13
2.52214e-11
-1.62774e-13
2.52574e-11
-1.80057e-13
2.5297e-11
-1.98313e-13
2.53404e-11
-2.17483e-13
2.53878e-11
-2.37463e-13
2.54394e-11
-2.58101e-13
2.54952e-11
-2.79185e-13
2.55553e-11
-3.00441e-13
2.56197e-11
-3.2152e-13
2.56882e-11
-3.41999e-13
2.57606e-11
-3.61373e-13
2.58366e-11
-3.79063e-13
2.59158e-11
-3.94414e-13
2.59974e-11
-4.06716e-13
2.60809e-11
-4.15194e-13
2.61652e-11
-4.19112e-13
2.62492e-11
-4.17563e-13
2.63317e-11
-4.09701e-13
2.64113e-11
-3.94909e-13
2.64865e-11
-3.72506e-13
2.65556e-11
-3.41967e-13
2.66168e-11
-3.02825e-13
2.66685e-11
-2.5478e-13
2.67086e-11
-1.97367e-13
2.67354e-11
-1.30415e-13
2.67474e-11
-5.4157e-14
2.67429e-11
2.79092e-14
2.67197e-11
1.19604e-13
2.66761e-11
2.21545e-13
2.66037e-11
3.40086e-13
2.65202e-11
4.55754e-13
2.63969e-11
5.96351e-13
2.6251e-11
7.37049e-13
2.60729e-11
9.06675e-13
2.58589e-11
1.08883e-12
2.55917e-11
1.30116e-12
2.52916e-11
1.53048e-12
2.49319e-11
1.81123e-12
2.45104e-11
2.12957e-12
2.40145e-11
2.5208e-12
2.34235e-11
2.98935e-12
2.27283e-11
3.57439e-12
2.19014e-11
4.31792e-12
2.09107e-11
5.27843e-12
1.9705e-11
6.55859e-12
1.82371e-11
8.28553e-12
1.64013e-11
1.07211e-11
1.40328e-11
1.40717e-11
1.07513e-11
1.93844e-11
5.99619e-12
2.43726e-11
2.03567e-11
9.21417e-14
2.34477e-12
6.34063e-13
-2.44265e-14
1.68427e-12
-3.0758e-12
2.80295e-12
-4.22482e-12
3.49793e-12
-3.3306e-12
3.42447e-12
-9.69121e-13
2.2095e-12
2.65528e-12
6.62472e-12
-2.97694e-12
1.11721e-11
-3.20439e-12
7.53593e-12
-2.56691e-12
2.29909e-12
-1.08757e-12
-3.22299e-12
1.18214e-12
-8.27491e-12
4.19326e-12
-1.32887e-11
7.74706e-12
-1.67126e-11
1.17908e-11
-2.07095e-11
-2.12771e-11
2.50008e-11
-5.00177e-15
2.50033e-11
-1.50135e-14
2.50075e-11
-2.51759e-14
2.50134e-11
-3.55769e-14
2.5021e-11
-4.63274e-14
2.50306e-11
-5.75349e-14
2.5042e-11
-6.93043e-14
2.50556e-11
-8.17403e-14
2.50713e-11
-9.49446e-14
2.50894e-11
-1.09015e-13
2.51099e-11
-1.24043e-13
2.51332e-11
-1.4011e-13
2.51592e-11
-1.57289e-13
2.51884e-11
-1.75632e-13
2.52208e-11
-1.95173e-13
2.52566e-11
-2.15917e-13
2.52962e-11
-2.37834e-13
2.53395e-11
-2.60854e-13
2.53869e-11
-2.84855e-13
2.54385e-11
-3.09654e-13
2.54943e-11
-3.34999e-13
2.55544e-11
-3.60561e-13
2.56188e-11
-3.85922e-13
2.56874e-11
-4.10575e-13
2.57599e-11
-4.33916e-13
2.58361e-11
-4.55246e-13
2.59155e-11
-4.73778e-13
2.59974e-11
-4.88658e-13
2.60812e-11
-4.98952e-13
2.61658e-11
-5.03771e-13
2.62503e-11
-5.02031e-13
2.63333e-11
-4.92708e-13
2.64135e-11
-4.75049e-13
2.64892e-11
-4.48236e-13
2.65589e-11
-4.11634e-13
2.66207e-11
-3.6468e-13
2.66729e-11
-3.07008e-13
2.67137e-11
-2.38105e-13
2.67412e-11
-1.5789e-13
2.6754e-11
-6.69922e-14
2.67501e-11
3.18035e-14
2.67276e-11
1.42113e-13
2.66781e-11
2.71058e-13
2.66197e-11
3.98469e-13
2.65304e-11
5.45044e-13
2.64146e-11
7.12107e-13
2.62633e-11
8.88367e-13
2.60867e-11
1.08333e-12
2.58681e-11
1.30744e-12
2.56162e-11
1.55301e-12
2.53062e-11
1.84046e-12
2.49509e-11
2.16659e-12
2.45225e-11
2.55796e-12
2.40285e-11
3.01474e-12
2.3442e-11
3.57589e-12
2.27436e-11
4.27283e-12
2.19122e-11
5.14929e-12
2.09068e-11
6.28383e-12
1.96694e-11
7.79603e-12
1.8129e-11
9.82592e-12
1.61305e-11
1.27196e-11
1.34417e-11
1.67605e-11
9.74027e-12
2.30858e-11
4.69033e-12
2.94225e-11
2.5047e-11
4.6112e-13
1.88365e-12
1.43691e-12
-1.00022e-12
2.86819e-12
-4.50707e-12
4.20629e-12
-5.56292e-12
4.89208e-12
-4.01639e-12
4.5656e-12
-6.42633e-13
2.81842e-12
4.40246e-12
9.44315e-12
-4.01917e-12
4.01917e-12
-2.85794e-12
1.00109e-11
-2.14814e-12
6.82613e-12
-8.31788e-13
9.82747e-13
1.11459e-12
-5.16936e-12
3.70827e-12
-1.08686e-11
6.90387e-12
-1.64843e-11
1.05317e-11
-2.03404e-11
1.4502e-11
-2.46798e-11
-2.50652e-11
2.50008e-11
-5.82514e-15
2.50033e-11
-1.74886e-14
2.50074e-11
-2.93235e-14
2.50133e-11
-4.14393e-14
2.50209e-11
-5.39626e-14
2.50304e-11
-6.70191e-14
2.50419e-11
-8.07316e-14
2.50553e-11
-9.52222e-14
2.5071e-11
-1.1061e-13
2.5089e-11
-1.27009e-13
2.51095e-11
-1.44527e-13
2.51326e-11
-1.63261e-13
2.51586e-11
-1.83293e-13
2.51877e-11
-2.04688e-13
2.522e-11
-2.27485e-13
2.52558e-11
-2.51693e-13
2.52952e-11
-2.77277e-13
2.53385e-11
-3.04157e-13
2.53859e-11
-3.32191e-13
2.54374e-11
-3.61169e-13
2.54932e-11
-3.90799e-13
2.55533e-11
-4.20696e-13
2.56178e-11
-4.50377e-13
2.56864e-11
-4.79247e-13
2.57591e-11
-5.06603e-13
2.58355e-11
-5.31629e-13
2.59151e-11
-5.53403e-13
2.59974e-11
-5.70925e-13
2.60816e-11
-5.83104e-13
2.61667e-11
-5.88888e-13
2.62517e-11
-5.87021e-13
2.63353e-11
-5.763e-13
2.6416e-11
-5.55823e-13
2.64924e-11
-5.24641e-13
2.65628e-11
-4.82003e-13
2.66254e-11
-4.27254e-13
2.66783e-11
-3.59962e-13
2.67198e-11
-2.79598e-13
2.67481e-11
-1.86199e-13
2.67618e-11
-8.06918e-14
2.67587e-11
3.48944e-14
2.67304e-11
1.70497e-13
2.6695e-11
3.06383e-13
2.66309e-11
4.62628e-13
2.65359e-11
6.39979e-13
2.64213e-11
8.26693e-13
2.6278e-11
1.03171e-12
2.60965e-11
1.26485e-12
2.588e-11
1.52392e-12
2.56243e-11
1.80867e-12
2.53244e-11
2.14038e-12
2.49672e-11
2.52379e-12
2.45509e-11
2.97431e-12
2.40522e-11
3.51345e-12
2.34638e-11
4.16427e-12
2.27719e-11
4.96473e-12
2.19283e-11
5.99287e-12
2.09016e-11
7.31056e-12
1.96338e-11
9.0638e-12
1.80132e-11
1.14465e-11
1.58856e-11
1.48472e-11
1.29662e-11
1.96799e-11
9.03662e-12
2.70154e-11
3.98724e-12
3.44719e-11
2.90343e-11
8.63157e-13
1.02049e-12
2.39174e-12
-2.5288e-12
4.3002e-12
-6.41553e-12
5.88524e-12
-7.14797e-12
6.53661e-12
-4.66775e-12
5.88497e-12
9.01038e-15
3.47038e-12
6.81705e-12
1.29135e-11
-2.15319e-12
6.17236e-12
-1.58043e-12
9.43816e-12
-3.89524e-13
5.63524e-12
1.3293e-12
-7.36078e-13
3.65206e-12
-7.49212e-12
6.54858e-12
-1.37651e-11
9.93506e-12
-1.98708e-11
1.36216e-11
-2.4027e-11
1.75067e-11
-2.85649e-11
-2.86145e-11
2.50008e-11
-6.64421e-15
2.50033e-11
-1.99503e-14
2.50074e-11
-3.34491e-14
2.50132e-11
-4.72708e-14
2.50208e-11
-6.15581e-14
2.50303e-11
-7.64549e-14
2.50416e-11
-9.21019e-14
2.50551e-11
-1.08639e-13
2.50706e-11
-1.26202e-13
2.50886e-11
-1.44923e-13
2.5109e-11
-1.64924e-13
2.5132e-11
-1.86317e-13
2.51579e-11
-2.09199e-13
2.51869e-11
-2.33644e-13
2.52191e-11
-2.59698e-13
2.52548e-11
-2.87371e-13
2.52941e-11
-3.16628e-13
2.53373e-11
-3.47377e-13
2.53846e-11
-3.79461e-13
2.54361e-11
-4.12639e-13
2.54919e-11
-4.46581e-13
2.5552e-11
-4.80849e-13
2.56165e-11
-5.14891e-13
2.56853e-11
-5.48029e-13
2.57582e-11
-5.79458e-13
2.58348e-11
-6.08244e-13
2.59147e-11
-6.33333e-13
2.59974e-11
-6.53573e-13
2.6082e-11
-6.67713e-13
2.61676e-11
-6.74538e-13
2.62532e-11
-6.72622e-13
2.63375e-11
-6.60576e-13
2.6419e-11
-6.37339e-13
2.64962e-11
-6.01837e-13
2.65674e-11
-5.53197e-13
2.66308e-11
-4.90675e-13
2.66846e-11
-4.13781e-13
2.6727e-11
-3.21996e-13
2.67563e-11
-2.1547e-13
2.6771e-11
-9.53509e-14
2.67688e-11
3.70681e-14
2.6748e-11
1.91263e-13
2.6707e-11
3.47421e-13
2.66372e-11
5.32415e-13
2.65567e-11
7.20469e-13
2.64368e-11
9.466e-13
2.6295e-11
1.1735e-12
2.61154e-11
1.44447e-12
2.59077e-11
1.7316e-12
2.56485e-11
2.06786e-12
2.53523e-11
2.43661e-12
2.49936e-11
2.88242e-12
2.4577e-11
3.39095e-12
2.40866e-11
4.00388e-12
2.35079e-11
4.74295e-12
2.28112e-11
5.66148e-12
2.1972e-11
6.83199e-12
2.09477e-11
8.33492e-12
1.96683e-11
1.03432e-11
1.80228e-11
1.3092e-11
1.58551e-11
1.70149e-11
1.2863e-11
2.26719e-11
8.83728e-12
3.10411e-11
3.772e-12
3.95372e-11
3.28063e-11
1.34375e-12
-3.23256e-13
3.63244e-12
-4.81749e-12
6.11971e-12
-8.9028e-12
7.9492e-12
-8.97746e-12
8.56558e-12
-5.28414e-12
7.63962e-12
9.34971e-13
4.59367e-12
9.86299e-12
1.75072e-11
-4.9536e-13
6.66772e-12
1.02355e-13
8.84044e-12
1.53751e-12
4.20009e-12
3.62465e-12
-2.82321e-12
6.3548e-12
-1.02223e-11
9.58667e-12
-1.6997e-11
1.31732e-11
-2.34573e-11
1.69249e-11
-2.77788e-11
2.06999e-11
-3.23399e-11
-3.19188e-11
2.50008e-11
-7.45833e-15
2.50033e-11
-2.23967e-14
2.50074e-11
-3.75496e-14
2.50132e-11
-5.30669e-14
2.50207e-11
-6.91083e-14
2.50301e-11
-8.58353e-14
2.50414e-11
-1.03407e-13
2.50547e-11
-1.21981e-13
2.50702e-11
-1.4171e-13
2.50881e-11
-1.62744e-13
2.51084e-11
-1.8522e-13
2.51313e-11
-2.09267e-13
2.51571e-11
-2.34994e-13
2.51859e-11
-2.62485e-13
2.5218e-11
-2.91794e-13
2.52536e-11
-3.22936e-13
2.52929e-11
-3.55872e-13
2.5336e-11
-3.90504e-13
2.53832e-11
-4.26654e-13
2.54346e-11
-4.64057e-13
2.54903e-11
-5.02342e-13
2.55505e-11
-5.4102e-13
2.56151e-11
-5.79471e-13
2.5684e-11
-6.16935e-13
2.57571e-11
-6.52503e-13
2.58339e-11
-6.85125e-13
2.59142e-11
-7.13609e-13
2.59973e-11
-7.36654e-13
2.60824e-11
-7.52847e-13
2.61687e-11
-7.60798e-13
2.6255e-11
-7.58923e-13
2.634e-11
-7.45636e-13
2.64224e-11
-7.19707e-13
2.65005e-11
-6.79941e-13
2.65727e-11
-6.2534e-13
2.66371e-11
-5.55074e-13
2.66919e-11
-4.68602e-13
2.67353e-11
-3.65437e-13
2.67657e-11
-2.45828e-13
2.67814e-11
-1.11071e-13
2.67803e-11
3.82078e-14
2.67606e-11
2.10963e-13
2.67206e-11
3.8736e-13
2.66587e-11
5.94362e-13
2.65662e-11
8.1297e-13
2.6461e-11
1.05178e-12
2.63077e-11
1.32676e-12
2.61368e-11
1.61543e-12
2.59252e-11
1.94318e-12
2.56822e-11
2.31089e-12
2.53771e-11
2.74165e-12
2.50298e-11
3.22974e-12
2.46202e-11
3.80059e-12
2.4138e-11
4.48607e-12
2.35643e-11
5.31662e-12
2.28767e-11
6.34913e-12
2.20612e-11
7.64746e-12
2.10576e-11
9.33851e-12
1.98142e-11
1.15866e-11
1.8231e-11
1.46752e-11
1.61664e-11
1.90796e-11
1.33407e-11
2.54976e-11
9.54725e-12
3.48346e-11
4.41392e-12
4.46705e-11
3.72202e-11
2.27214e-12
-2.5954e-12
5.54259e-12
-8.08793e-12
8.56389e-12
-1.19241e-11
1.05515e-11
-1.09651e-11
1.11657e-11
-5.89827e-12
1.02191e-11
1.88158e-12
7.09877e-12
1.29833e-11
2.4606e-11
3.64748e-13
6.30298e-12
1.41469e-12
7.7905e-12
3.35607e-12
2.25872e-12
5.97938e-12
-5.44653e-12
9.19617e-12
-1.34391e-11
1.27951e-11
-2.05959e-11
1.65947e-11
-2.7257e-11
2.03738e-11
-3.15578e-11
2.40087e-11
-3.59748e-11
-3.495e-11
2.50008e-11
-8.26683e-15
2.50032e-11
-2.4826e-14
2.50073e-11
-4.16217e-14
2.50131e-11
-5.88234e-14
2.50206e-11
-7.66073e-14
2.50299e-11
-9.51534e-14
2.50411e-11
-1.14639e-13
2.50544e-11
-1.35238e-13
2.50698e-11
-1.57123e-13
2.50875e-11
-1.8046e-13
2.51077e-11
-2.05404e-13
2.51305e-11
-2.32096e-13
2.51562e-11
-2.60661e-13
2.51849e-11
-2.91195e-13
2.52169e-11
-3.2376e-13
2.52523e-11
-3.58373e-13
2.52914e-11
-3.94997e-13
2.53344e-11
-4.33523e-13
2.53815e-11
-4.73759e-13
2.54329e-11
-5.15413e-13
2.54886e-11
-5.58076e-13
2.55488e-11
-6.01209e-13
2.56135e-11
-6.44124e-13
2.56825e-11
-6.85978e-13
2.57558e-11
-7.25761e-13
2.5833e-11
-7.62302e-13
2.59136e-11
-7.94274e-13
2.59972e-11
-8.20222e-13
2.60829e-11
-8.38569e-13
2.61699e-11
-8.47746e-13
2.62569e-11
-8.46012e-13
2.63429e-11
-8.31581e-13
2.64262e-11
-8.03038e-13
2.65054e-11
-7.59071e-13
2.65786e-11
-6.98559e-13
2.66441e-11
-6.20585e-13
2.67e-11
-5.24565e-13
2.67447e-11
-4.10059e-13
2.67762e-11
-2.77395e-13
2.67931e-11
-1.27959e-13
2.67864e-11
4.48893e-14
2.67746e-11
2.22782e-13
2.67359e-11
4.26067e-13
2.66753e-11
6.55006e-13
2.65909e-11
8.97379e-13
2.64741e-11
1.16858e-12
2.63359e-11
1.46489e-12
2.61672e-11
1.78414e-12
2.59584e-11
2.152e-12
2.5706e-11
2.56333e-12
2.54182e-11
3.02945e-12
2.50765e-11
3.57137e-12
2.46739e-11
4.20328e-12
2.42012e-11
4.95877e-12
2.36401e-11
5.87765e-12
2.29806e-11
7.00864e-12
2.219e-11
8.43805e-12
2.1243e-11
1.02855e-11
2.00824e-11
1.27471e-11
1.86515e-11
1.61061e-11
1.68559e-11
2.08752e-11
1.45609e-11
2.77926e-11
1.163e-11
3.77654e-11
7.30375e-12
4.89968e-11
4.45239e-11
4.45719e-12
-7.05259e-12
8.59179e-12
-1.22225e-11
1.1825e-11
-1.51573e-11
1.377e-11
-1.29101e-11
1.44147e-11
-6.54299e-12
1.38537e-11
2.44257e-12
1.19443e-11
1.48927e-11
3.65503e-11
7.89998e-13
5.51298e-12
2.55525e-12
6.02526e-12
5.2735e-12
-4.59524e-13
8.579e-12
-8.75202e-12
1.23169e-11
-1.71769e-11
1.62534e-11
-2.45324e-11
2.02029e-11
-3.12065e-11
2.3941e-11
-3.52959e-11
2.73721e-11
-3.94059e-11
-3.76729e-11
2.50008e-11
-9.06906e-15
2.50032e-11
-2.72362e-14
2.50073e-11
-4.56623e-14
2.5013e-11
-6.45356e-14
2.50204e-11
-8.40495e-14
2.50297e-11
-1.04402e-13
2.50408e-11
-1.25789e-13
2.5054e-11
-1.48402e-13
2.50693e-11
-1.72432e-13
2.50869e-11
-1.9806e-13
2.51069e-11
-2.25461e-13
2.51296e-11
-2.54791e-13
2.51552e-11
-2.86188e-13
2.51837e-11
-3.1976e-13
2.52155e-11
-3.55579e-13
2.52508e-11
-3.93668e-13
2.52898e-11
-4.33986e-13
2.53327e-11
-4.76421e-13
2.53797e-11
-5.20764e-13
2.5431e-11
-5.66698e-13
2.54867e-11
-6.13779e-13
2.55469e-11
-6.61416e-13
2.56117e-11
-7.08856e-13
2.56808e-11
-7.55171e-13
2.57543e-11
-7.99252e-13
2.58318e-11
-8.39807e-13
2.59129e-11
-8.7537e-13
2.59971e-11
-9.04331e-13
2.60834e-11
-9.24947e-13
2.61711e-11
-9.3546e-13
2.62591e-11
-9.33981e-13
2.6346e-11
-9.18512e-13
2.64304e-11
-8.87441e-13
2.65107e-11
-8.39349e-13
2.65851e-11
-7.72981e-13
2.66519e-11
-6.87342e-13
2.67091e-11
-5.81809e-13
2.67551e-11
-4.5599e-13
2.6788e-11
-3.10292e-13
2.68061e-11
-1.46124e-13
2.68074e-11
4.3595e-14
2.67902e-11
2.39991e-13
2.67462e-11
4.70108e-13
2.6687e-11
7.14192e-13
2.66042e-11
9.80197e-13
2.64958e-11
1.27694e-12
2.63598e-11
1.60093e-12
2.6187e-11
1.95687e-12
2.59879e-11
2.35118e-12
2.57456e-11
2.80563e-12
2.54563e-11
3.31868e-12
2.51272e-11
3.90049e-12
2.47328e-11
4.59765e-12
2.42704e-11
5.42121e-12
2.37358e-11
6.4122e-12
2.31031e-11
7.64137e-12
2.23588e-11
9.18235e-12
2.14725e-11
1.11719e-11
2.04274e-11
1.37921e-11
1.91897e-11
1.73439e-11
1.77672e-11
2.22976e-11
1.62184e-11
2.93414e-11
1.47879e-11
3.91959e-11
1.29818e-11
5.08029e-11
5.75058e-11
3.5861e-12
-3.5861e-12
7.85661e-12
-1.13231e-11
1.24745e-11
-1.68404e-11
1.56535e-11
-1.83363e-11
1.74565e-11
-1.47131e-11
1.80505e-11
-7.13692e-12
1.77177e-11
2.77533e-12
1.65683e-11
1.6042e-11
1.9909e-11
3.32096e-11
1.9909e-11
1.20215e-12
4.31084e-12
4.03782e-12
3.18959e-12
7.71347e-12
-4.13517e-12
1.17177e-11
-1.27563e-11
1.59021e-11
-2.13613e-11
2.00637e-11
-2.86939e-11
2.40258e-11
-3.51687e-11
2.76037e-11
-3.88738e-11
3.07172e-11
-4.25194e-11
-4.00275e-11
2.50008e-11
-9.86438e-15
2.50032e-11
-2.96255e-14
2.50072e-11
-4.96682e-14
2.50129e-11
-7.01992e-14
2.50202e-11
-9.14293e-14
2.50294e-11
-1.13575e-13
2.50405e-11
-1.36849e-13
2.50535e-11
-1.61462e-13
2.50687e-11
-1.87624e-13
2.50862e-11
-2.15532e-13
2.51061e-11
-2.45379e-13
2.51287e-11
-2.77337e-13
2.5154e-11
-3.11558e-13
2.51824e-11
-3.48165e-13
2.52141e-11
-3.87237e-13
2.52492e-11
-4.28803e-13
2.52881e-11
-4.72826e-13
2.53308e-11
-5.19184e-13
2.53777e-11
-5.67657e-13
2.54289e-11
-6.17905e-13
2.54846e-11
-6.69446e-13
2.55448e-11
-7.2164e-13
2.56096e-11
-7.7367e-13
2.5679e-11
-8.24526e-13
2.57527e-11
-8.72997e-13
2.58306e-11
-9.17669e-13
2.59122e-11
-9.56939e-13
2.59969e-11
-9.89035e-13
2.6084e-11
-1.01205e-12
2.61725e-11
-1.02402e-12
2.62615e-11
-1.02292e-12
2.63495e-11
-1.00653e-12
2.64351e-11
-9.73032e-13
2.65166e-11
-9.20897e-13
2.65924e-11
-8.48736e-13
2.66605e-11
-7.55478e-13
2.67192e-11
-6.40464e-13
2.67665e-11
-5.03371e-13
2.68009e-11
-3.44638e-13
2.68204e-11
-1.65681e-13
2.68231e-11
4.08979e-14
2.68074e-11
2.55771e-13
2.67715e-11
5.05988e-13
2.67139e-11
7.7182e-13
2.66327e-11
1.06131e-12
2.65263e-11
1.38337e-12
2.63925e-11
1.73474e-12
2.62225e-11
2.12692e-12
2.60201e-11
2.55357e-12
2.5782e-11
3.04367e-12
2.55107e-11
3.58995e-12
2.51818e-11
4.22943e-12
2.48026e-11
4.97688e-12
2.43643e-11
5.85946e-12
2.38522e-11
6.92437e-12
2.32528e-11
8.24073e-12
2.25523e-11
9.88283e-12
2.17386e-11
1.19856e-11
2.07969e-11
1.47339e-11
1.97295e-11
1.84113e-11
1.85848e-11
2.34423e-11
1.74868e-11
3.04395e-11
1.68165e-11
3.98662e-11
1.60642e-11
5.15552e-11
2.02328e-11
5.33372e-11
2.02328e-11
5.29093e-12
-8.87703e-12
1.10957e-11
-1.71279e-11
1.61841e-11
-2.19287e-11
1.95706e-11
-2.17228e-11
2.13357e-11
-1.64782e-11
2.17393e-11
-7.54058e-12
2.09765e-11
3.53821e-12
1.91847e-11
1.78338e-11
1.51837e-11
3.72106e-11
3.50927e-11
2.34171e-12
1.96913e-12
6.53972e-12
-1.00841e-12
1.1063e-11
-8.65849e-12
1.55991e-11
-1.72924e-11
2.00304e-11
-2.57926e-11
2.42351e-11
-3.28986e-11
2.8052e-11
-3.89856e-11
3.13147e-11
-4.21365e-11
3.40022e-11
-4.52068e-11
-4.19494e-11
2.50008e-11
-1.06521e-14
2.50032e-11
-3.1992e-14
2.50071e-11
-5.36361e-14
2.50127e-11
-7.58097e-14
2.502e-11
-9.87408e-14
2.50291e-11
-1.22664e-13
2.50401e-11
-1.47811e-13
2.5053e-11
-1.7441e-13
2.50681e-11
-2.02689e-13
2.50854e-11
-2.32864e-13
2.51052e-11
-2.65145e-13
2.51276e-11
-2.9972e-13
2.51528e-11
-3.36758e-13
2.5181e-11
-3.76393e-13
2.52125e-11
-4.18716e-13
2.52475e-11
-4.63764e-13
2.52861e-11
-5.11499e-13
2.53287e-11
-5.61798e-13
2.53755e-11
-6.14426e-13
2.54266e-11
-6.69021e-13
2.54823e-11
-7.25068e-13
2.55425e-11
-7.81878e-13
2.56074e-11
-8.38571e-13
2.56769e-11
-8.94054e-13
2.57509e-11
-9.47015e-13
2.58292e-11
-9.9592e-13
2.59113e-11
-1.03902e-12
2.59966e-11
-1.07439e-12
2.60845e-11
-1.09993e-12
2.6174e-11
-1.1135e-12
2.6264e-11
-1.11291e-12
2.63532e-11
-1.09574e-12
2.64401e-11
-1.05993e-12
2.6523e-11
-1.00384e-12
2.66002e-11
-9.25956e-13
2.66699e-11
-8.25131e-13
2.67301e-11
-7.00676e-13
2.67791e-11
-5.52327e-13
2.6815e-11
-3.80553e-13
2.6836e-11
-1.86745e-13
2.68403e-11
3.66764e-14
2.6826e-11
2.70008e-13
2.67917e-11
5.40271e-13
2.67358e-11
8.27765e-13
2.66566e-11
1.14057e-12
2.65456e-11
1.49436e-12
2.64142e-11
1.86607e-12
2.62537e-11
2.28743e-12
2.60614e-11
2.74586e-12
2.58343e-11
3.27083e-12
2.55622e-11
3.86199e-12
2.52472e-11
4.54445e-12
2.48834e-11
5.34074e-12
2.44584e-11
6.28446e-12
2.3969e-11
7.41371e-12
2.34066e-11
8.80322e-12
2.27579e-11
1.05315e-11
2.20116e-11
1.27319e-11
2.11604e-11
1.55851e-11
2.01978e-11
1.93739e-11
1.91726e-11
2.44676e-11
1.81273e-11
3.14847e-11
1.71661e-11
4.08274e-11
1.57278e-11
5.29935e-11
1.14963e-11
5.75687e-11
3.1729e-11
6.55492e-12
-1.54319e-11
1.38224e-11
-2.43954e-11
1.98044e-11
-2.79108e-11
2.35692e-11
-2.54877e-11
2.5355e-11
-1.8264e-11
2.55381e-11
-7.72368e-12
2.41758e-11
4.90054e-12
2.13024e-11
2.07072e-11
1.49702e-11
4.35429e-11
5.00629e-11
7.85749e-13
-7.85751e-13
5.17299e-12
-2.4181e-12
1.03408e-11
-6.17626e-12
1.53907e-11
-1.37084e-11
2.01913e-11
-2.2093e-11
2.46703e-11
-3.02716e-11
2.87152e-11
-3.69435e-11
3.21689e-11
-4.24392e-11
3.49675e-11
-4.49351e-11
3.71121e-11
-4.73514e-11
-4.33763e-11
2.50008e-11
-1.14317e-14
2.50031e-11
-3.43338e-14
2.5007e-11
-5.75631e-14
2.50126e-11
-8.13627e-14
2.50198e-11
-1.05978e-13
2.50288e-11
-1.31663e-13
2.50397e-11
-1.58666e-13
2.50525e-11
-1.87236e-13
2.50674e-11
-2.17616e-13
2.50846e-11
-2.50044e-13
2.51042e-11
-2.84745e-13
2.51264e-11
-3.21926e-13
2.51514e-11
-3.61771e-13
2.51795e-11
-4.04428e-13
2.52108e-11
-4.50001e-13
2.52455e-11
-4.98533e-13
2.5284e-11
-5.49991e-13
2.53265e-11
-6.04247e-13
2.53731e-11
-6.61056e-13
2.54241e-11
-7.20036e-13
2.54797e-11
-7.80638e-13
2.55399e-11
-8.42129e-13
2.56049e-11
-9.03562e-13
2.56746e-11
-9.63766e-13
2.5749e-11
-1.02133e-12
2.58276e-11
-1.07459e-12
2.59103e-11
-1.12165e-12
2.59963e-11
-1.16044e-12
2.6085e-11
-1.18867e-12
2.61755e-11
-1.204e-12
2.62667e-11
-1.20406e-12
2.63572e-11
-1.18623e-12
2.64455e-11
-1.14824e-12
2.653e-11
-1.0883e-12
2.66088e-11
-1.00477e-12
2.66801e-11
-8.96436e-13
2.6742e-11
-7.62577e-13
2.67926e-11
-6.02985e-13
2.68302e-11
-4.18164e-13
2.68529e-11
-2.09436e-13
2.68588e-11
3.08101e-14
2.68462e-11
2.82583e-13
2.68137e-11
5.72844e-13
2.67595e-11
8.81899e-13
2.66756e-11
1.22453e-12
2.65801e-11
1.58979e-12
2.64514e-11
1.9948e-12
2.6294e-11
2.44486e-12
2.60989e-11
2.94087e-12
2.58767e-11
3.49308e-12
2.56169e-11
4.12181e-12
2.53163e-11
4.84508e-12
2.4969e-11
5.68795e-12
2.45696e-11
6.68394e-12
2.41048e-11
7.87852e-12
2.35786e-11
9.32933e-12
2.29719e-11
1.11383e-11
2.2286e-11
1.34178e-11
2.15067e-11
1.63643e-11
2.06403e-11
2.02403e-11
1.96869e-11
2.5421e-11
1.86269e-11
3.25447e-11
1.73401e-11
4.21142e-11
1.51349e-11
5.51988e-11
9.79411e-12
6.29095e-11
4.15232e-11
1.07739e-11
-2.62058e-11
1.84028e-11
-3.20243e-11
2.43006e-11
-3.38086e-11
2.79699e-11
-2.9157e-11
2.96395e-11
-1.99336e-11
2.96747e-11
-7.7588e-12
2.82296e-11
6.34556e-12
2.57661e-11
2.31707e-11
2.12673e-11
4.80416e-11
7.13302e-11
4.13086e-12
-4.9166e-12
9.13983e-12
-7.42708e-12
1.49485e-11
-1.19849e-11
2.03972e-11
-1.91571e-11
2.52977e-11
-2.69934e-11
2.96286e-11
-3.46026e-11
3.33143e-11
-4.06292e-11
3.62619e-11
-4.53868e-11
3.84505e-11
-4.71237e-11
3.99588e-11
-4.88597e-11
-4.42624e-11
2.50008e-11
-1.22025e-14
2.50031e-11
-3.6649e-14
2.5007e-11
-6.14457e-14
2.50125e-11
-8.68538e-14
2.50196e-11
-1.13136e-13
2.50285e-11
-1.40564e-13
2.50393e-11
-1.69406e-13
2.5052e-11
-1.99929e-13
2.50667e-11
-2.32395e-13
2.50837e-11
-2.67059e-13
2.51032e-11
-3.04166e-13
2.51252e-11
-3.4394e-13
2.515e-11
-3.86582e-13
2.51778e-11
-4.32255e-13
2.52089e-11
-4.81075e-13
2.52435e-11
-5.33094e-13
2.52817e-11
-5.88284e-13
2.5324e-11
-6.46515e-13
2.53705e-11
-7.07534e-13
2.54214e-11
-7.70938e-13
2.54769e-11
-8.36148e-13
2.55372e-11
-9.02386e-13
2.56022e-11
-9.68645e-13
2.56721e-11
-1.03367e-12
2.57468e-11
-1.09595e-12
2.58259e-11
-1.1537e-12
2.59091e-11
-1.20488e-12
2.59959e-11
-1.24724e-12
2.60856e-11
-1.27833e-12
2.61771e-11
-1.29558e-12
2.62695e-11
-1.29645e-12
2.63614e-11
-1.27812e-12
2.64513e-11
-1.23809e-12
2.65374e-11
-1.17441e-12
2.66179e-11
-1.08532e-12
2.6691e-11
-9.69533e-13
2.67548e-11
-8.26304e-13
2.68073e-11
-6.55482e-13
2.68467e-11
-4.57591e-13
2.68711e-11
-2.33875e-13
2.68787e-11
2.3185e-14
2.6868e-11
2.9338e-13
2.68372e-11
6.03596e-13
2.6785e-11