/*--------------------------------*- C++ -*----------------------------------*\
| =========                 |                                                 |
| \\      /  F ield         | OpenFOAM: The Open Source CFD Toolbox           |
|  \\    /   O peration     | Version:  4.x                                   |
|   \\  /    A nd           | Web:      www.OpenFOAM.org                      |
|    \\/     M anipulation  |                                                 |
\*---------------------------------------------------------------------------*/
FoamFile
{
    version     2.0;
    format      ascii;
    class       volScalarField;
    location    "1262";
    object      T;
}
// * * * * * * * * * * * * * * * * * * * * * * * * * * * * * * * * * * * * * //

dimensions      [0 0 0 1 0 0 0];

internalField   nonuniform List<scalar> 
9089
(
288.15
288.15
288.15
288.15
288.15
288.15
288.15
288.15
288.15
288.15
288.15
288.15
288.15
288.15
288.15
288.15
288.15
288.15
288.15
288.15
288.15
288.15
288.15
288.15
288.15
288.15
288.15
288.15
288.15
288.15
288.15
288.15
288.15
288.15
288.15
288.15
288.15
288.15
288.15
288.15
288.15
288.15
288.15
288.15
288.15
288.15
288.15
288.15
288.15
288.15
288.15
288.15
288.15
288.15
288.15
288.15
288.15
288.15
288.15
288.156
288.207
288.67
292.188
313.397
350.332
340.816
335.348
332.362
331.169
332.024
336.285
347.306
347.715
337.653
333.546
331.695
330.521
329.506
328.429
327.54
326.984
288.15
288.15
288.15
288.15
288.15
288.15
288.15
288.15
288.15
288.15
288.15
288.15
288.15
288.15
288.15
288.15
288.15
288.15
288.15
288.15
288.15
288.15
288.15
288.15
288.15
288.15
288.15
288.15
288.15
288.15
288.15
288.15
288.15
288.15
288.15
288.15
288.15
288.15
288.15
288.15
288.15
288.15
288.15
288.15
288.15
288.15
288.15
288.15
288.15
288.15
288.15
288.15
288.15
288.15
288.15
288.15
288.15
288.15
288.15
288.155
288.198
288.584
291.389
310.575
350.455
340.91
335.311
332.237
330.997
331.798
336.029
347.072
347.926
337.872
333.701
331.826
330.621
329.55
328.413
327.483
326.865
288.15
288.15
288.15
288.15
288.15
288.15
288.15
288.15
288.15
288.15
288.15
288.15
288.15
288.15
288.15
288.15
288.15
288.15
288.15
288.15
288.15
288.15
288.15
288.15
288.15
288.15
288.15
288.15
288.15
288.15
288.15
288.15
288.15
288.15
288.15
288.15
288.15
288.15
288.15
288.15
288.15
288.15
288.15
288.15
288.15
288.15
288.15
288.15
288.15
288.15
288.15
288.15
288.15
288.15
288.15
288.15
288.15
288.15
288.15
288.154
288.187
288.483
290.684
304.507
338.703
350.509
340.929
335.178
331.981
330.668
331.347
335.439
346.521
348.076
338.144
333.97
332.074
330.801
329.616
328.386
327.368
326.647
288.15
288.15
288.15
288.15
288.15
288.15
288.15
288.15
288.15
288.15
288.15
288.15
288.15
288.15
288.15
288.15
288.15
288.15
288.15
288.15
288.15
288.15
288.15
288.15
288.15
288.15
288.15
288.15
288.15
288.15
288.15
288.15
288.15
288.15
288.15
288.15
288.15
288.15
288.15
288.15
288.15
288.15
288.15
288.15
288.15
288.15
288.15
288.15
288.15
288.15
288.15
288.15
288.15
288.15
288.15
288.15
288.15
288.15
288.15
288.153
288.179
288.396
289.963
298.79
326.501
350.469
340.83
334.909
331.617
330.186
330.703
334.592
345.736
347.964
338.372
334.32
332.409
331.022
329.665
328.344
327.191
326.336
288.15
288.15
288.15
288.15
288.15
288.15
288.15
288.15
288.15
288.15
288.15
288.15
288.15
288.15
288.15
288.15
288.15
288.15
288.15
288.15
288.15
288.15
288.15
288.15
288.15
288.15
288.15
288.15
288.15
288.15
288.15
288.15
288.15
288.15
288.15
288.15
288.15
288.15
288.15
288.15
288.15
288.15
288.15
288.15
288.15
288.15
288.15
288.15
288.15
288.15
288.15
288.15
288.15
288.15
288.15
288.15
288.15
288.15
288.15
288.152
288.173
288.343
289.574
296.642
322.994
350.207
340.521
334.513
331.109
329.547
329.896
333.56
344.73
347.673
338.511
334.729
332.788
331.225
329.691
328.246
326.931
325.934
288.15
288.15
288.15
288.15
288.15
288.15
288.15
288.15
288.15
288.15
288.15
288.15
288.15
288.15
288.15
288.15
288.15
288.15
288.15
288.15
288.15
288.15
288.15
288.15
288.15
288.15
288.15
288.15
288.15
288.15
288.15
288.15
288.15
288.15
288.15
288.15
288.15
288.15
288.15
288.15
288.15
288.15
288.15
288.15
288.15
288.15
288.15
288.15
288.15
288.15
288.15
288.15
288.15
288.15
288.15
288.15
288.15
288.15
288.15
288.152
288.169
288.315
289.389
295.757
321.859
349.756
340.004
333.918
330.409
328.738
328.946
332.428
343.709
354.309
346.478
338.679
335.173
333.138
331.371
329.658
328.048
326.566
325.433
288.15
288.15
288.15
288.15
288.15
288.15
288.15
288.15
288.15
288.15
288.15
288.15
288.15
288.15
288.15
288.15
288.15
288.15
288.15
288.15
288.15
288.15
288.15
288.15
288.15
288.15
288.15
288.15
288.15
288.15
288.15
288.15
288.15
288.15
288.15
288.15
288.15
288.15
288.15
288.15
288.15
288.15
288.15
288.15
288.15
288.15
288.15
288.15
288.15
288.15
288.15
288.15
288.15
288.15
288.15
288.15
288.15
288.15
288.15
288.152
288.168
288.301
289.305
295.405
321.582
349.019
339.171
333.036
329.465
327.734
327.847
331.199
342.549
352.693
345.166
338.915
335.603
333.412
331.424
329.496
327.707
326.07
324.821
288.15
288.15
288.15
288.15
288.15
288.15
288.15
288.15
288.15
288.15
288.15
288.15
288.15
288.15
288.15
288.15
288.15
288.15
288.15
288.15
288.15
288.15
288.15
288.15
288.15
288.15
288.15
288.15
288.15
288.15
288.15
288.15
288.15
288.15
288.15
288.15
288.15
288.15
288.15
288.15
288.15
288.15
288.15
288.15
288.15
288.15
288.15
288.15
288.15
288.15
288.15
288.15
288.15
288.15
288.15
288.15
288.15
288.15
288.15
288.152
288.166
288.294
289.267
295.291
321.561
347.843
337.895
331.783
328.223
326.498
326.565
329.845
341.28
352.507
344.94
339.243
335.997
333.552
331.298
329.146
327.189
325.426
324.093
288.15
288.15
288.15
288.15
288.15
288.15
288.15
288.15
288.15
288.15
288.15
288.15
288.15
288.15
288.15
288.15
288.15
288.15
288.15
288.15
288.15
288.15
288.15
288.15
288.15
288.15
288.15
288.15
288.15
288.15
288.15
288.15
288.15
288.15
288.15
288.15
288.15
288.15
288.15
288.15
288.15
288.15
288.15
288.15
288.15
288.15
288.15
288.15
288.15
288.15
288.15
288.15
288.15
288.15
288.15
288.15
288.15
288.15
288.15
288.152
288.166
288.289
289.24
295.197
321.13
346.015
336.033
330.085
326.632
324.984
325.058
328.21
339.533
352.38
344.98
339.61
336.213
333.454
330.927
328.569
326.475
324.628
323.252
288.15
288.15
288.15
288.15
288.15
288.15
288.15
288.15
288.15
288.15
288.15
288.15
288.15
288.15
288.15
288.15
288.15
288.15
288.15
288.15
288.15
288.15
288.15
288.15
288.15
288.15
288.15
288.15
288.15
288.15
288.15
288.15
288.15
288.15
288.15
288.15
288.15
288.15
288.15
288.15
288.15
288.15
288.15
288.15
288.15
288.15
288.15
288.15
288.15
288.15
288.15
288.15
288.15
288.15
288.15
288.15
288.15
288.15
288.15
288.152
288.165
288.282
289.192
294.901
319.718
343.314
333.428
327.878
324.65
323.147
323.258
326.121
337.174
352.153
344.955
339.745
336.103
333.034
330.264
327.744
325.563
323.685
322.311
288.15
288.15
288.15
288.15
288.15
288.15
288.15
288.15
288.15
288.15
288.15
288.15
288.15
288.15
288.15
288.15
288.15
288.15
288.15
288.15
288.15
288.15
288.15
288.15
288.15
288.15
288.15
288.15
288.15
288.15
288.15
288.15
288.15
288.15
288.15
288.15
288.15
288.15
288.15
288.15
288.15
288.15
288.15
288.15
288.15
288.15
288.15
288.15
288.15
288.15
288.15
288.15
288.15
288.15
288.15
288.15
288.15
288.15
288.15
288.151
288.164
288.272
289.106
294.226
317.415
351.226
338.751
330.117
325.163
322.272
320.976
321.144
323.662
332.788
345.403
351.556
344.53
339.404
335.543
332.226
329.282
326.67
324.467
322.618
321.296
288.15
288.15
288.15
288.15
288.15
288.15
288.15
288.15
288.15
288.15
288.15
288.15
288.15
288.15
288.15
288.15
288.15
288.15
288.15
288.15
288.15
288.15
288.15
288.15
288.15
288.15
288.15
288.15
288.15
288.15
288.15
288.15
288.15
288.15
288.15
288.15
288.15
288.15
288.15
288.15
288.15
288.15
288.15
288.15
288.15
288.15
288.15
288.15
288.15
288.15
288.15
288.15
288.15
288.15
288.15
288.15
288.15
288.15
288.15
288.151
288.162
288.259
288.99
293.379
312.257
336.157
344.454
333.083
326.37
322.09
319.584
318.53
318.787
321.051
328.297
339.998
350.301
343.364
338.404
334.441
330.996
327.979
325.365
323.213
321.459
320.24
288.15
288.15
288.15
288.15
288.15
288.15
288.15
288.15
288.15
288.15
288.15
288.15
288.15
288.15
288.15
288.15
288.15
288.15
288.15
288.15
288.15
288.15
288.15
288.15
288.15
288.15
288.15
288.15
288.15
288.15
288.15
288.15
288.15
288.15
288.15
288.15
288.15
288.15
288.15
288.15
288.15
288.15
288.15
288.15
288.15
288.15
288.15
288.15
288.15
288.15
288.15
288.15
288.15
288.15
288.15
288.15
288.15
288.15
288.15
288.151
288.161
288.245
288.872
292.584
307.559
329.665
340.314
329.156
322.815
318.931
316.736
315.911
316.297
318.476
324.961
337.047
354.121
347.391
341.267
336.676
332.78
329.353
326.385
323.865
321.844
320.251
319.186
288.15
288.15
288.15
288.15
288.15
288.15
288.15
288.15
288.15
288.15
288.15
288.15
288.15
288.15
288.15
288.15
288.15
288.15
288.15
288.15
288.15
288.15
288.15
288.15
288.15
288.15
288.15
288.15
288.15
288.15
288.15
288.15
288.15
288.15
288.15
288.15
288.15
288.15
288.15
288.15
288.15
288.15
288.15
288.15
288.15
288.15
288.15
288.15
288.15
288.15
288.15
288.15
288.15
288.15
288.15
288.15
288.15
288.15
288.15
288.151
288.16
288.233
288.77
291.941
304.678
326.57
336.771
325.595
319.434
315.794
313.84
313.207
313.732
315.902
321.868
334.444
350.07
343.408
338.529
334.336
330.636
327.363
324.558
322.228
320.415
319.045
318.182
288.15
288.15
288.15
288.15
288.15
288.15
288.15
288.15
288.15
288.15
288.15
288.15
288.15
288.15
288.15
288.15
288.15
288.15
288.15
288.15
288.15
288.15
288.15
288.15
288.15
288.15
288.15
288.15
288.15
288.15
288.15
288.15
288.15
288.15
288.15
288.15
288.15
288.15
288.15
288.15
288.15
288.15
288.15
288.15
288.15
288.15
288.15
288.15
288.15
288.15
288.15
288.15
288.15
288.15
288.15
288.15
288.15
288.15
288.15
288.151
288.158
288.221
288.682
291.397
302.279
324.128
347.257
331.743
321.645
315.951
312.641
310.941
310.482
311.119
313.246
318.64
329.609
341.721
347.116
340.174
335.523
331.608
328.159
325.134
322.587
320.53
318.991
317.902
317.283
288.15
288.15
288.15
288.15
288.15
288.15
288.15
288.15
288.15
288.15
288.15
288.15
288.15
288.15
288.15
288.15
288.15
288.15
288.15
288.15
288.15
288.15
288.15
288.15
288.15
288.15
288.15
288.15
288.15
288.15
288.15
288.15
288.15
288.15
288.15
288.15
288.15
288.15
288.15
288.15
288.15
288.15
288.15
288.15
288.15
288.15
288.15
288.15
288.15
288.15
288.15
288.15
288.15
288.15
288.15
288.15
288.15
288.15
288.15
288.151
288.157
288.211
288.602
290.892
299.971
318.47
339.423
338.744
325.055
317.172
312.31
309.489
308.103
307.817
308.526
310.551
315.329
324.347
336.828
351.238
342.771
336.573
332.233
328.614
325.474
322.778
320.568
318.852
317.647
316.887
316.547
288.15
288.15
288.15
288.15
288.15
288.15
288.15
288.15
288.15
288.15
288.15
288.15
288.15
288.15
288.15
288.15
288.15
288.15
288.15
288.15
288.15
288.15
288.15
288.15
288.15
288.15
288.15
288.15
288.15
288.15
288.15
288.15
288.15
288.15
288.15
288.15
288.15
288.15
288.15
288.15
288.15
288.15
288.15
288.15
288.15
288.15
288.15
288.15
288.15
288.15
288.15
288.15
288.15
288.15
288.15
288.15
288.15
288.15
288.15
288.151
288.156
288.201
288.528
290.423
297.852
312.397
333.618
347.721
332.043
319.765
312.869
308.774
306.492
305.446
305.325
306.069
307.95
312.12
319.888
330.857
343.756
351.385
343.844
336.939
332.315
328.59
325.416
322.688
320.402
318.599
317.285
316.462
316.067
316.033
288.15
288.15
288.15
288.15
288.15
288.15
288.15
288.15
288.15
288.15
288.15
288.15
288.15
288.15
288.15
288.15
288.15
288.15
288.15
288.15
288.15
288.15
288.15
288.15
288.15
288.15
288.15
288.15
288.15
288.15
288.15
288.15
288.15
288.15
288.15
288.15
288.15
288.15
288.15
288.15
288.15
288.15
288.15
288.15
288.15
288.15
288.15
288.15
288.15
288.15
288.15
288.15
288.15
288.15
288.15
288.15
288.15
288.15
288.15
288.151
288.155
288.193
288.462
290.004
296.004
307.838
325.732
344.477
340.04
324.028
314.594
308.846
305.537
303.81
303.107
303.132
303.872
305.572
309.132
315.753
324.432
334.93
342.028
346.231
342.648
336.237
331.553
327.868
324.797
322.161
319.929
318.125
316.788
315.922
315.517
315.51
315.795
288.15
288.15
288.15
288.15
288.15
288.15
288.15
288.15
288.15
288.15
288.15
288.15
288.15
288.15
288.15
288.15
288.15
288.15
288.15
288.15
288.15
288.15
288.15
288.15
288.15
288.15
288.15
288.15
288.15
288.15
288.15
288.15
288.15
288.15
288.15
288.15
288.15
288.15
288.15
288.15
288.15
288.15
288.15
288.15
288.15
288.15
288.15
288.15
288.15
288.15
288.15
288.15
288.15
288.15
288.15
288.15
288.15
288.15
288.15
288.15
288.154
288.185
288.404
289.641
294.424
304
317.363
333.479
344.667
348.829
343.114
331.391
317.951
309.948
305.254
302.734
301.569
301.203
301.354
302.056
303.536
306.491
311.998
319.191
326.488
331.852
334.043
332.539
329.359
326.204
323.452
321.07
319.027
317.349
316.075
315.244
314.857
314.89
315.277
315.883
288.15
288.15
288.15
288.15
288.15
288.15
288.15
288.15
288.15
288.15
288.15
288.15
288.15
288.15
288.15
288.15
288.15
288.15
288.15
288.15
288.15
288.15
288.15
288.15
288.15
288.15
288.15
288.15
288.15
288.15
288.15
288.15
288.15
288.15
288.15
288.15
288.15
288.15
288.15
288.15
288.15
288.15
288.15
288.15
288.15
288.15
288.15
288.15
288.15
288.15
288.15
288.15
288.15
288.15
288.15
288.15
288.15
288.15
288.15
288.15
288.154
288.179
288.354
289.333
293.102
300.794
311.382
322.669
331.609
334.765
328.835
320.093
311.656
305.629
302.127
300.447
299.858
299.821
300.078
300.711
301.94
304.308
308.745
314.653
320.337
324.489
325.735
325.12
323.289
321.242
319.324
317.626
316.198
315.1
314.382
314.078
314.181
314.651
315.422
316.334
288.15
288.15
288.15
288.15
288.15
288.15
288.15
288.15
288.15
288.15
288.15
288.15
288.15
288.15
288.15
288.15
288.15
288.15
288.15
288.15
288.15
288.15
288.15
288.15
288.15
288.15
288.15
288.15
288.15
288.15
288.15
288.15
288.15
288.15
288.15
288.15
288.15
288.15
288.15
288.15
288.15
288.15
288.15
288.15
288.15
288.15
288.15
288.15
288.15
288.15
288.15
288.15
288.15
288.15
288.15
288.15
288.15
288.15
288.15
288.15
288.153
288.173
288.312
289.077
292.018
298.152
306.606
315.311
322.122
323.818
319.388
312.825
306.454
301.972
299.599
298.758
298.742
299.019
299.36
299.897
300.854
302.663
306.097
310.824
315.327
318.57
319.484
319.19
318.155
316.91
315.703
314.651
313.834
313.322
313.165
313.387
313.97
314.86
315.981
317.166
288.15
288.15
288.15
288.15
288.15
288.15
288.15
288.15
288.15
288.15
288.15
288.15
288.15
288.15
288.15
288.15
288.15
288.15
288.15
288.15
288.15
288.15
288.15
288.15
288.15
288.15
288.15
288.15
288.15
288.15
288.15
288.15
288.15
288.15
288.15
288.15
288.15
288.15
288.15
288.15
288.15
288.15
288.15
288.15
288.15
288.15
288.15
288.15
288.15
288.15
288.15
288.15
288.15
288.15
288.15
288.15
288.15
288.15
288.15
288.15
288.152
288.168
288.277
288.87
291.14
295.988
302.735
309.543
314.621
315.431
312.082
307.095
302.261
299.062
297.739
297.72
298.265
298.833
299.232
299.652
300.318
301.601
304.119
307.74
311.241
313.747
314.506
314.442
313.954
313.336
312.75
312.303
312.076
312.137
312.528
313.255
314.286
315.553
316.971
318.375
288.15
288.15
288.15
288.15
288.15
288.15
288.15
288.15
288.15
288.15
288.15
288.15
288.15
288.15
288.15
288.15
288.15
288.15
288.15
288.15
288.15
288.15
288.15
288.15
288.15
288.15
288.15
288.15
288.15
288.15
288.15
288.15
288.15
288.15
288.15
288.15
288.15
288.15
288.15
288.15
288.15
288.15
288.15
288.15
288.15
288.15
288.15
288.15
288.15
288.15
288.15
288.15
288.15
288.15
288.15
288.15
288.15
288.15
288.15
288.15
288.152
288.165
288.249
288.703
290.438
294.229
299.579
304.915
308.674
308.995
306.399
302.573
298.953
296.881
296.557
297.352
298.448
299.283
299.712
299.995
300.355
301.138
302.842
305.45
308.053
309.93
310.588
310.751
310.715
310.632
310.605
310.721
311.052
311.655
312.558
313.746
315.168
316.743
318.379
319.928
288.15
288.15
288.15
288.15
288.15
288.15
288.15
288.15
288.15
288.15
288.15
288.15
288.15
288.15
288.15
288.15
288.15
288.15
288.15
288.15
288.15
288.15
288.15
288.15
288.15
288.15
288.15
288.15
288.15
288.15
288.15
288.15
288.15
288.15
288.15
288.15
288.15
288.15
288.15
288.15
288.15
288.15
288.15
288.15
288.15
288.15
288.15
288.15
288.15
288.15
288.15
288.15
288.15
288.15
288.15
288.15
288.15
288.15
288.15
288.15
288.151
288.161
288.226
288.571
289.883
292.811
297.009
301.173
303.947
304.01
301.967
299.024
296.41
295.38
296.041
297.66
299.302
300.38
300.817
300.94
300.978
301.284
302.271
303.992
305.806
307.159
307.771
308.189
308.557
308.943
309.413
310.036
310.873
311.965
313.318
314.894
316.621
318.408
320.162
321.764
288.15
288.15
288.15
288.15
288.15
288.15
288.15
288.15
288.15
288.15
288.15
288.15
288.15
288.15
288.15
288.15
288.15
288.15
288.15
288.15
288.15
288.15
288.15
288.15
288.15
288.15
288.15
288.15
288.15
288.15
288.15
288.15
288.15
288.15
288.15
288.15
288.15
288.15
288.15
288.15
288.15
288.15
288.15
288.15
288.15
288.15
288.15
288.15
288.15
288.15
288.15
288.15
288.15
288.15
288.15
288.15
288.15
288.15
288.15
288.15
288.151
288.159
288.209
288.468
289.449
291.68
294.933
298.151
300.19
300.122
298.511
296.265
294.531
294.512
296.18
298.652
300.848
302.148
302.595
302.515
302.201
302.042
302.404
303.384
304.56
305.554
306.261
306.962
307.677
308.445
309.322
310.368
311.631
313.129
314.839
316.698
318.611
320.487
322.238
323.79
288.15
288.15
288.15
288.15
288.15
288.15
288.15
288.15
288.15
288.15
288.15
288.15
288.15
288.15
288.15
288.15
288.15
288.15
288.15
288.15
288.15
288.15
288.15
288.15
288.15
288.15
288.15
288.15
288.15
288.15
288.15
288.15
288.15
288.15
288.15
288.15
288.15
288.15
288.15
288.15
288.15
288.15
288.15
288.15
288.15
288.15
288.15
288.15
288.15
288.15
288.15
288.15
288.15
288.15
288.15
288.15
288.15
288.15
288.15
288.15
288.151
288.157
288.194
288.388
289.113
290.789
293.273
295.731
297.218
297.09
295.826
294.156
293.232
294.242
296.973
300.353
303.128
304.637
305.089
304.749
304.041
303.413
303.23
303.635
304.393
305.332
306.381
307.343
308.292
309.304
310.453
311.802
313.376
315.163
317.102
319.102
321.053
322.874
324.493
325.888
288.15
288.15
288.15
288.15
288.15
288.15
288.15
288.15
288.15
288.15
288.15
288.15
288.15
288.15
288.15
288.15
288.15
288.15
288.15
288.15
288.15
288.15
288.15
288.15
288.15
288.15
288.15
288.15
288.15
288.15
288.15
288.15
288.15
288.15
288.15
288.15
288.15
288.15
288.15
288.15
288.15
288.15
288.15
288.15
288.15
288.15
288.15
288.15
288.15
288.15
288.15
288.15
288.15
288.15
288.15
288.15
288.15
288.15
288.15
288.15
288.151
288.155
288.183
288.326
288.856
290.097
291.964
293.814
294.886
294.739
293.762
292.582
292.453
294.549
298.443
302.818
306.225
307.95
308.362
307.688
306.519
305.406
304.746
304.771
305.461
306.957
308.456
309.567
310.568
311.629
312.873
314.365
316.098
318.019
320.02
321.987
323.805
325.42
326.784
327.932
288.15
288.15
288.15
288.15
288.15
288.15
288.15
288.15
288.15
288.15
288.15
288.15
288.15
288.15
288.15
288.15
288.15
288.15
288.15
288.15
288.15
288.15
288.15
288.15
288.15
288.15
288.15
288.15
288.15
288.15
288.15
288.15
288.15
288.15
288.15
288.15
288.15
288.15
288.15
288.15
288.15
288.15
288.15
288.15
288.15
288.15
288.15
288.15
288.15
288.15
288.15
288.15
288.15
288.15
288.15
288.15
288.15
288.15
288.15
288.15
288.151
288.154
288.175
288.279
288.662
289.568
290.949
292.318
293.079
292.936
292.199
291.456
292.148
295.428
300.652
306.147
310.299
312.281
312.572
311.41
309.663
308.025
306.958
306.864
308.108
310.632
312.617
313.712
314.579
315.459
316.568
317.998
319.701
321.563
323.427
325.164
326.678
327.947
328.962
329.801
288.15
288.15
288.15
288.15
288.15
288.15
288.15
288.15
288.15
288.15
288.15
288.15
288.15
288.15
288.15
288.15
288.15
288.15
288.15
288.15
288.15
288.15
288.15
288.15
288.15
288.15
288.15
288.15
288.15
288.15
288.15
288.15
288.15
288.15
288.15
288.15
288.15
288.15
288.15
288.15
288.15
288.15
288.15
288.15
288.15
288.15
288.15
288.15
288.15
288.15
288.15
288.15
288.15
288.15
288.15
288.15
288.15
288.15
288.15
288.15
288.15
288.153
288.168
288.244
288.518
289.17
290.174
291.17
291.701
291.574
291.038
290.704
292.289
296.894
303.72
310.519
315.637
317.969
317.916
315.979
313.481
311.263
309.88
310.089
312.74
316.396
318.782
319.741
320.326
320.79
321.407
322.518
323.97
325.557
327.07
328.388
329.448
330.275
330.889
331.397
288.15
288.15
288.15
288.15
288.15
288.15
288.15
288.15
288.15
288.15
288.15
288.15
288.15
288.15
288.15
288.15
288.15
288.15
288.15
288.15
288.15
288.15
288.15
288.15
288.15
288.15
288.15
288.15
288.15
288.15
288.15
288.15
288.15
288.15
288.15
288.15
288.15
288.15
288.15
288.15
288.15
288.15
288.15
288.15
288.15
288.15
288.15
288.15
288.15
288.15
288.15
288.15
288.15
288.15
288.15
288.15
288.15
288.15
288.15
288.15
288.15
288.152
288.163
288.217
288.411
288.874
289.593
290.306
290.669
290.564
290.197
290.27
292.866
298.985
307.887
316.252
322.762
325.544
324.556
321.388
317.924
315.08
313.536
314.818
319.157
323.925
326.723
327.505
327.253
326.924
326.973
327.557
328.565
329.668
330.636
331.383
331.901
332.249
332.465
332.663
288.15
288.15
288.15
288.15
288.15
288.15
288.15
288.15
288.15
288.15
288.15
288.15
288.15
288.15
288.15
288.15
288.15
288.15
288.15
288.15
288.15
288.15
288.15
288.15
288.15
288.15
288.15
288.15
288.15
288.15
288.15
288.15
288.15
288.15
288.15
288.15
288.15
288.15
288.15
288.15
288.15
288.15
288.15
288.15
288.15
288.15
288.15
288.15
288.15
288.15
288.15
288.15
288.15
288.15
288.15
288.15
288.15
288.15
288.15
288.15
288.15
288.152
288.16
288.198
288.334
288.659
289.165
289.667
289.91
289.83
289.61
290.111
293.88
301.76
313.603
323.925
332.632
335.375
332.464
327.516
322.865
319.387
317.956
321.302
327.299
332.956
336.497
336.699
335.007
333.406
332.661
332.653
333.074
333.516
333.796
333.901
333.868
333.769
333.643
333.587
288.15
288.15
288.15
288.15
288.15
288.15
288.15
288.15
288.15
288.15
288.15
288.15
288.15
288.15
288.15
288.15
288.15
288.15
288.15
288.15
288.15
288.15
288.15
288.15
288.15
288.15
288.15
288.15
288.15
288.15
288.15
288.15
288.15
288.15
288.15
288.15
288.15
288.15
288.15
288.15
288.15
288.15
288.15
288.15
288.15
288.15
288.15
288.15
288.15
288.15
288.15
288.15
288.15
288.15
288.15
288.15
288.15
288.15
288.15
288.15
288.15
288.151
288.157
288.184
288.278
288.503
288.856
289.203
289.362
289.306
289.218
290.197
295.345
305.278
322.299
335.734
346.923
348.147
342.724
334.185
328.111
324.043
323.128
328.728
337.84
344.318
348.989
348.439
344.278
339.886
338.024
337.391
337.088
336.741
336.283
335.772
335.263
334.809
334.431
334.2
288.15
288.15
288.15
288.15
288.15
288.15
288.15
288.15
288.15
288.15
288.15
288.15
288.15
288.15
288.15
288.15
288.15
288.15
288.15
288.15
288.15
288.15
288.15
288.15
288.15
288.15
288.15
288.15
288.15
288.15
288.15
288.15
288.15
288.15
288.15
288.15
288.15
288.15
288.15
288.15
288.15
288.15
288.15
288.15
288.15
288.15
288.15
288.15
288.15
288.15
288.15
288.15
288.15
288.15
288.15
288.15
288.15
288.15
288.15
288.15
288.15
288.151
288.155
288.174
288.239
288.393
288.635
288.872
288.974
288.942
288.978
290.51
297.292
309.616
330.727
351.597
342.033
333.414
328.848
328.84
337.318
347.497
352.029
346.145
342.732
341.424
340.272
339.088
337.95
336.944
336.096
335.412
334.885
334.557
288.15
288.15
288.15
288.15
288.15
288.15
288.15
288.15
288.15
288.15
288.15
288.15
288.15
288.15
288.15
288.15
288.15
288.15
288.15
288.15
288.15
288.15
288.15
288.15
288.15
288.15
288.15
288.15
288.15
288.15
288.15
288.15
288.15
288.15
288.15
288.15
288.15
288.15
288.15
288.15
288.15
288.15
288.15
288.15
288.15
288.15
288.15
288.15
288.15
288.15
288.15
288.15
288.15
288.15
288.15
288.15
288.15
288.15
288.15
288.15
288.15
288.151
288.154
288.167
288.211
288.316
288.481
288.641
288.706
288.695
288.855
291.055
299.825
315.585
336.765
347.867
338.397
333.566
334.343
343.826
350.684
346.556
344.54
342.447
340.478
338.812
337.485
336.454
335.665
335.085
334.728
288.15
288.15
288.15
288.15
288.15
288.15
288.15
288.15
288.15
288.15
288.15
288.15
288.15
288.15
288.15
288.15
288.15
288.15
288.15
288.15
288.15
288.15
288.15
288.15
288.15
288.15
288.15
288.15
288.15
288.15
288.15
288.15
288.15
288.15
288.15
288.15
288.15
288.15
288.15
288.15
288.15
288.15
288.15
288.15
288.15
288.15
288.15
288.15
288.15
288.15
288.15
288.15
288.15
288.15
288.15
288.15
288.15
288.15
288.15
288.15
288.15
288.15
288.152
288.162
288.192
288.263
288.374
288.482
288.526
288.533
288.826
291.846
303.185
322.017
352.889
344.208
338.107
339.103
347.278
354.511
350.151
346.777
343.66
341.024
339.016
337.545
336.47
335.677
335.114
334.777
288.15
288.15
288.15
288.15
288.15
288.15
288.15
288.15
288.15
288.15
288.15
288.15
288.15
288.15
288.15
288.15
288.15
288.15
288.15
288.15
288.15
288.15
288.15
288.15
288.15
288.15
288.15
288.15
288.15
288.15
288.15
288.15
288.15
288.15
288.15
288.15
288.15
288.15
288.15
288.15
288.15
288.15
288.15
288.15
288.15
288.15
288.15
288.15
288.15
288.15
288.15
288.15
288.15
288.15
288.15
288.15
288.15
288.15
288.15
288.15
288.15
288.15
288.152
288.158
288.178
288.226
288.301
288.373
288.405
288.431
288.869
292.885
308.036
328.505
348.469
342.29
344.37
352.144
352.596
348.207
344.121
340.959
338.776
337.298
336.277
335.548
335.047
334.759
288.15
288.15
288.15
288.15
288.15
288.15
288.15
288.15
288.15
288.15
288.15
288.15
288.15
288.15
288.15
288.15
288.15
288.15
288.15
288.15
288.15
288.15
288.15
288.15
288.15
288.15
288.15
288.15
288.15
288.15
288.15
288.15
288.15
288.15
288.15
288.15
288.15
288.15
288.15
288.15
288.15
288.15
288.15
288.15
288.15
288.15
288.15
288.15
288.15
288.15
288.15
288.15
288.15
288.15
288.15
288.15
288.15
288.15
288.15
288.15
288.15
288.15
288.151
288.155
288.169
288.201
288.251
288.3
288.325
288.369
288.958
294.08
313.542
351.426
346.269
348.534
353.67
349.068
344.123
340.545
338.299
336.899
335.986
335.356
334.938
334.71
288.15
288.15
288.15
288.15
288.15
288.15
288.15
288.15
288.15
288.15
288.15
288.15
288.15
288.15
288.15
288.15
288.15
288.15
288.15
288.15
288.15
288.15
288.15
288.15
288.15
288.15
288.15
288.15
288.15
288.15
288.15
288.15
288.15
288.15
288.15
288.15
288.15
288.15
288.15
288.15
288.15
288.15
288.15
288.15
288.15
288.15
288.15
288.15
288.15
288.15
288.15
288.15
288.15
288.15
288.15
288.15
288.15
288.15
288.15
288.15
288.15
288.15
288.151
288.154
288.163
288.184
288.218
288.252
288.272
288.333
289.07
295.276
315.555
355.028
350.56
351.406
354.449
349.758
343.952
339.997
337.743
336.459
335.675
335.153
334.822
334.653
288.15
288.15
288.15
288.15
288.15
288.15
288.15
288.15
288.15
288.15
288.15
288.15
288.15
288.15
288.15
288.15
288.15
288.15
288.15
288.15
288.15
288.15
288.15
288.15
288.15
288.15
288.15
288.15
288.15
288.15
288.15
288.15
288.15
288.15
288.15
288.15
288.15
288.15
288.15
288.15
288.15
288.15
288.15
288.15
288.15
288.15
288.15
288.15
288.15
288.15
288.15
288.15
288.15
288.15
288.15
288.15
288.15
288.15
288.15
288.15
288.15
288.15
288.151
288.153
288.159
288.173
288.196
288.219
288.237
288.315
289.217
296.593
317.542
354.485
354.627
355.705
350.982
343.806
339.477
337.214
336.047
335.388
334.972
334.72
334.599
288.15
288.15
288.15
288.15
288.15
288.15
288.15
288.15
288.15
288.15
288.15
288.15
288.15
288.15
288.15
288.15
288.15
288.15
288.15
288.15
288.15
288.15
288.15
288.15
288.15
288.15
288.15
288.15
288.15
288.15
288.15
288.15
288.15
288.15
288.15
288.15
288.15
288.15
288.15
288.15
288.15
288.15
288.15
288.15
288.15
288.15
288.15
288.15
288.15
288.15
288.15
288.15
288.15
288.15
288.15
288.15
288.15
288.15
288.15
288.15
288.15
288.15
288.15
288.152
288.156
288.165
288.181
288.197
288.214
288.316
289.453
298.549
320.104
357.255
357.269
351.904
343.679
339.011
336.759
335.701
335.149
334.82
334.632
334.548
288.15
288.15
288.15
288.15
288.15
288.15
288.15
288.15
288.15
288.15
288.15
288.15
288.15
288.15
288.15
288.15
288.15
288.15
288.15
288.15
288.15
288.15
288.15
288.15
288.15
288.15
288.15
288.15
288.15
288.15
288.15
288.15
288.15
288.15
288.15
288.15
288.15
288.15
288.15
288.15
288.15
288.15
288.15
288.15
288.15
288.15
288.15
288.15
288.15
288.15
288.15
288.15
288.15
288.15
288.15
288.15
288.15
288.15
288.15
288.15
288.15
288.15
288.15
288.151
288.154
288.16
288.171
288.183
288.2
288.335
289.826
302.229
327.936
352.039
343.476
338.587
336.379
335.418
334.955
334.698
334.56
334.502
288.15
288.15
288.15
288.15
288.15
288.15
288.15
288.15
288.15
288.15
288.15
288.15
288.15
288.15
288.15
288.15
288.15
288.15
288.15
288.15
288.15
288.15
288.15
288.15
288.15
288.15
288.15
288.15
288.15
288.15
288.15
288.15
288.15
288.15
288.15
288.15
288.15
288.15
288.15
288.15
288.15
288.15
288.15
288.15
288.15
288.15
288.15
288.15
288.15
288.15
288.15
288.15
288.15
288.15
288.15
288.15
288.15
288.15
288.15
288.15
288.15
288.15
288.15
288.151
288.153
288.157
288.164
288.173
288.192
288.367
290.251
307.275
351.996
343.131
338.197
336.066
335.193
334.802
334.601
334.5
334.46
288.15
288.15
288.15
288.15
288.15
288.15
288.15
288.15
288.15
288.15
288.15
288.15
288.15
288.15
288.15
288.15
288.15
288.15
288.15
288.15
288.15
288.15
288.15
288.15
288.15
288.15
288.15
288.15
288.15
288.15
288.15
288.15
288.15
288.15
288.15
288.15
288.15
288.15
288.15
288.15
288.15
288.15
288.15
288.15
288.15
288.15
288.15
288.15
288.15
288.15
288.15
288.15
288.15
288.15
288.15
288.15
288.15
288.15
288.15
288.15
288.15
288.15
288.15
288.151
288.152
288.155
288.16
288.167
288.187
288.396
290.685
309.201
351.747
342.721
337.854
335.814
335.017
334.684
334.525
334.45
334.422
288.15
288.15
288.15
288.15
288.15
288.15
288.15
288.15
288.15
288.15
288.15
288.15
288.15
288.15
288.15
288.15
288.15
288.15
288.15
288.15
288.15
288.15
288.15
288.15
288.15
288.15
288.15
288.15
288.15
288.15
288.15
288.15
288.15
288.15
288.15
288.15
288.15
288.15
288.15
288.15
288.15
288.15
288.15
288.15
288.15
288.15
288.15
288.15
288.15
288.15
288.15
288.15
288.15
288.15
288.15
288.15
288.15
288.15
288.15
288.15
288.15
288.15
288.15
288.15
288.151
288.153
288.157
288.162
288.183
288.41
290.857
310.34
351.435
342.368
337.588
335.623
334.883
334.592
334.464
334.408
334.388
288.15
288.15
288.15
288.15
288.15
288.15
288.15
288.15
288.15
288.15
288.15
288.15
288.15
288.15
288.15
288.15
288.15
288.15
288.15
288.15
288.15
288.15
288.15
288.15
288.15
288.15