/*--------------------------------*- C++ -*----------------------------------*\
| =========                 |                                                 |
| \\      /  F ield         | OpenFOAM: The Open Source CFD Toolbox           |
|  \\    /   O peration     | Version:  4.x                                   |
|   \\  /    A nd           | Web:      www.OpenFOAM.org                      |
|    \\/     M anipulation  |                                                 |
\*---------------------------------------------------------------------------*/
FoamFile
{
    version     2.0;
    format      ascii;
    class       volVectorField;
    location    "1262";
    object      U;
}
// * * * * * * * * * * * * * * * * * * * * * * * * * * * * * * * * * * * * * //

dimensions      [0 1 -1 0 0 0 0];

internalField   nonuniform List<vector> 
9089
(
(1 -4.59045e-06 0)
(1.00007 -1.34129e-05 0)
(1.0002 -2.25918e-05 0)
(1.0004 -3.18541e-05 0)
(1.00068 -4.14501e-05 0)
(1.00102 -5.14602e-05 0)
(1.00145 -6.1965e-05 0)
(1.00195 -7.30631e-05 0)
(1.00254 -8.48435e-05 0)
(1.00322 -9.73916e-05 0)
(1.004 -0.000110788 0)
(1.00488 -0.000125105 0)
(1.00588 -0.000140402 0)
(1.00699 -0.000156728 0)
(1.00822 -0.000174107 0)
(1.0096 -0.000192541 0)
(1.01111 -0.000212003 0)
(1.01277 -0.000232424 0)
(1.01459 -0.000253692 0)
(1.01657 -0.000275641 0)
(1.01872 -0.000298043 0)
(1.02104 -0.000320603 0)
(1.02353 -0.000342945 0)
(1.02618 -0.000364618 0)
(1.029 -0.000385084 0)
(1.03196 -0.000403725 0)
(1.03505 -0.000419843 0)
(1.03825 -0.000432695 0)
(1.04154 -0.000441438 0)
(1.04488 -0.000445335 0)
(1.04822 -0.000443395 0)
(1.05153 -0.000434701 0)
(1.05475 -0.000418672 0)
(1.05781 -0.000394557 0)
(1.06067 -0.00036182 0)
(1.06325 -0.000319965 0)
(1.06548 -0.000268732 0)
(1.06729 -0.000207623 0)
(1.0686 -0.000136405 0)
(1.06935 -5.07822e-05 3.66447e-23)
(1.06939 3.46804e-05 -3.66426e-23)
(1.06883 0.000130663 0)
(1.06746 0.000240167 0)
(1.06524 0.000359952 0)
(1.06208 0.00049093 2.93618e-22)
(1.05789 0.000634426 -2.9361e-22)
(1.05257 0.000792254 -5.88367e-22)
(1.04601 0.0009671 1.1774e-21)
(1.03806 0.00116259 -5.88992e-22)
(1.02854 0.00138377 1.18181e-21)
(1.01724 0.00163762 -3.54935e-21)
(1.00387 0.00193363 2.36691e-21)
(0.988058 0.00228517 4.75684e-21)
(0.969302 0.00271156 -4.15837e-21)
(0.946932 0.00323931 0)
(0.920007 0.00390945 0)
(0.887209 0.0047845 1.80864e-20)
(0.846574 0.00595427 -1.92512e-20)
(0.795272 0.0075771 0)
(0.728587 0.00987349 -4.86616e-21)
(0.639935 0.0132941 -7.85162e-20)
(0.51599 0.0181534 1.55999e-19)
(0.345244 0.0243902 8.06516e-22)
(0.107658 0.0244377 -7.42557e-20)
(-0.0180543 0.00519116 0)
(-0.051366 0.00210346 0)
(-0.046731 -0.00179365 -7.3797e-21)
(-0.0252306 -0.00376932 4.7418e-22)
(0.00538752 -0.00364372 2.31579e-20)
(0.0240434 -0.00209147 7.11868e-23)
(0.0356655 0.000292818 0)
(0.0168802 0.00371821 0)
(-0.0379786 0.0119456 0)
(-0.1452 0.0109933 0)
(-0.209428 0.00536031 0)
(-0.230333 -0.000672807 0)
(-0.194161 -0.00613375 -9.89069e-22)
(-0.133094 -0.0123343 -3.72541e-22)
(0.0132647 -0.0156095 1.29022e-22)
(0.103816 -0.0220841 0)
(0.395415 -0.0210525 0)
(1 -1.3567e-05 0)
(1.00007 -4.01678e-05 0)
(1.0002 -6.75712e-05 0)
(1.0004 -9.53791e-05 0)
(1.00068 -0.000124159 0)
(1.00102 -0.000154171 0)
(1.00145 -0.000185672 0)
(1.00195 -0.00021895 0)
(1.00254 -0.000254274 0)
(1.00322 -0.0002919 0)
(1.004 -0.000332069 0)
(1.00488 -0.000374999 0)
(1.00587 -0.000420873 0)
(1.00698 -0.00046983 0)
(1.00822 -0.00052195 0)
(1.00959 -0.000577239 0)
(1.0111 -0.000635611 0)
(1.01277 -0.000696866 0)
(1.01459 -0.000760669 0)
(1.01657 -0.000826523 0)
(1.01872 -0.000893745 0)
(1.02103 -0.000961449 0)
(1.02352 -0.00102852 0)
(1.02618 -0.00109359 0)
(1.02899 -0.00115505 0)
(1.03195 -0.00121106 0)
(1.03505 -0.00125951 0)
(1.03825 -0.00129818 0)
(1.04154 -0.00132455 0)
(1.04488 -0.00133638 0)
(1.04823 -0.0013307 0)
(1.05154 -0.00130481 0)
(1.05476 -0.00125689 0)
(1.05783 -0.00118472 0)
(1.06069 -0.00108668 0)
(1.06328 -0.000961273 0)
(1.06551 -0.000807682 0)
(1.06733 -0.000624421 0)
(1.06864 -0.000410503 0)
(1.06939 -0.000156669 0)
(1.06946 0.000101601 1.16944e-22)
(1.06889 0.000390312 -1.1693e-22)
(1.06753 0.000717833 0)
(1.06531 0.00107698 0)
(1.06216 0.00146962 0)
(1.05798 0.00189978 0)
(1.05267 0.00237292 0)
(1.04612 0.00289687 0)
(1.03818 0.00348284 0)
(1.02868 0.00414581 3.77512e-21)
(1.01741 0.00490667 8.35477e-24)
(1.00407 0.00579414 3.80357e-21)
(0.988307 0.00684823 -8.53767e-21)
(0.969625 0.00812542 1.43228e-20)
(0.947363 0.00970806 -3.25307e-20)
(0.92061 0.0117168 1.53444e-20)
(0.888092 0.0143361 3.86578e-21)
(0.847924 0.0178399 -3.89131e-21)
(0.797452 0.0226899 -6.49982e-20)
(0.732268 0.0295397 6.70566e-20)
(0.646388 0.0396554 0)
(0.527295 0.0538693 0)
(0.364771 0.0734154 -6.51751e-19)
(0.123723 0.0714219 1.37449e-18)
(-0.0165123 0.015113 -4.77833e-20)
(-0.04538 0.00608956 1.42534e-19)
(-0.0367757 -0.00555556 -6.05356e-20)
(-0.0126808 -0.0114153 1.77102e-20)
(0.0190716 -0.0109204 -1.25679e-20)
(0.0374049 -0.00600591 -2.48212e-20)
(0.0468636 0.00150744 -1.0031e-19)
(0.0218844 0.0122051 -5.05978e-20)
(-0.0383424 0.0350144 5.96746e-21)
(-0.14024 0.0323525 0)
(-0.200343 0.0156238 0)
(-0.216627 -0.00248923 0)
(-0.175951 -0.0190997 2.0499e-22)
(-0.110965 -0.0371931 2.07235e-21)
(0.037339 -0.0477845 -2.13691e-22)
(0.13065 -0.06523 0)
(0.419037 -0.0649049 -2.03888e-22)
(1 -2.23687e-05 0)
(1.00007 -6.68914e-05 0)
(1.0002 -0.000112354 0)
(1.0004 -0.00015872 0)
(1.00068 -0.000206665 0)
(1.00102 -0.000256649 0)
(1.00144 -0.000309121 0)
(1.00195 -0.000364553 0)
(1.00254 -0.000423392 0)
(1.00322 -0.00048607 0)
(1.00399 -0.000552987 0)
(1.00487 -0.000624507 0)
(1.00586 -0.000700937 0)
(1.00697 -0.000782507 0)
(1.00821 -0.000869356 0)
(1.00958 -0.000961495 0)
(1.01109 -0.00105878 0)
(1.01275 -0.00116089 0)
(1.01457 -0.00126725 0)
(1.01655 -0.00137706 0)
(1.0187 -0.00148916 0)
(1.02102 -0.00160209 0)
(1.02351 -0.00171399 0)
(1.02616 -0.00182258 0)
(1.02898 -0.0019252 0)
(1.03194 -0.00201875 0)
(1.03504 -0.00209974 0)
(1.03825 -0.00216444 0)
(1.04154 -0.00220868 0)
(1.04489 -0.00222867 0)
(1.04824 -0.00221949 0)
(1.05156 -0.00217667 0)
(1.05479 -0.00209708 0)
(1.05787 -0.00197705 0)
(1.06074 -0.00181385 0)
(1.06333 -0.00160501 0)
(1.06558 -0.00134905 0)
(1.0674 -0.00104349 0)
(1.06872 -0.000686328 5.84686e-23)
(1.06948 -0.000269214 -5.84725e-23)
(1.06958 0.000163979 1.16938e-22)
(1.06902 0.000647695 -1.16914e-22)
(1.06766 0.00119214 0)
(1.06545 0.00179014 0)
(1.06231 0.00244387 0)
(1.05815 0.00315981 9.36799e-22)
(1.05286 0.00394726 0)
(1.04633 0.00481917 0)
(1.03842 0.00579358 -4.70403e-21)
(1.02896 0.00689585 3.76378e-21)
(1.01773 0.00815995 -7.55801e-21)
(1.00446 0.00963298 7.55721e-21)
(0.988781 0.0113809 1.61458e-20)
(0.970226 0.0134963 -3.04457e-20)
(0.948157 0.0161132 -1.34634e-20)
(0.921694 0.0194273 6.14196e-20)
(0.889636 0.0237323 2.53493e-20)
(0.85023 0.02947 -1.20589e-19)
(0.801058 0.0373616 1.90688e-19)
(0.738205 0.0484438 -2.50439e-19)
(0.656625 0.0647382 1.2856e-19)
(0.545547 0.0879183 0)
(0.397583 0.122332 6.80393e-19)
(0.157681 0.134107 -1.40198e-18)
(0.0309982 0.0698135 7.76663e-19)
(-0.0138412 0.0230111 -9.39144e-20)
(-0.0336849 0.00826188 9.37992e-20)
(-0.0169241 -0.01054 -9.43818e-20)
(0.0122787 -0.0196627 2.99461e-21)
(0.0460703 -0.0180945 3.0203e-21)
(0.0635534 -0.0089228 4.86843e-20)
(0.0687427 0.00485061 1.46951e-19)
(0.0320345 0.0238741 -1.48661e-19)
(-0.0404779 0.0556853 -6.46147e-22)
(-0.132108 0.0515471 0)
(-0.182413 0.0240721 -1.42687e-20)
(-0.188925 -0.00609257 7.84842e-22)
(-0.139442 -0.0339288 3.84931e-21)
(-0.0672051 -0.0630213 -1.24778e-21)
(0.0846318 -0.0816156 0)
(0.182374 -0.10729 -1.00696e-22)
(0.465135 -0.110378 1.06079e-22)
(1 -3.12402e-05 0)
(1.00007 -9.36442e-05 0)
(1.0002 -0.000157144 0)
(1.0004 -0.000222035 0)
(1.00067 -0.000289115 0)
(1.00102 -0.000359042 0)
(1.00144 -0.000432458 0)
(1.00194 -0.000510018 0)
(1.00253 -0.000592351 0)
(1.00321 -0.000680059 0)
(1.00398 -0.000773709 0)
(1.00486 -0.000873807 0)
(1.00585 -0.000980785 0)
(1.00696 -0.00109497 0)
(1.00819 -0.00121656 0)
(1.00956 -0.00134557 0)
(1.01107 -0.00148181 0)
(1.01273 -0.00162481 0)
(1.01455 -0.00177381 0)
(1.01653 -0.00192764 0)
(1.01868 -0.00208474 0)
(1.021 -0.00224303 0)
(1.02349 -0.00239991 0)
(1.02614 -0.00255222 0)
(1.02896 -0.00269619 0)
(1.03193 -0.0028275 0)
(1.03503 -0.00294128 0)
(1.03825 -0.00303224 0)
(1.04155 -0.00309461 0)
(1.0449 -0.00312298 0)
(1.04827 -0.00311053 0)
(1.05159 -0.00305097 0)
(1.05484 -0.00293985 0)
(1.05793 -0.00277204 0)
(1.06081 -0.0025437 0)
(1.06342 -0.00225136 0)
(1.06568 -0.00189279 0)
(1.06751 -0.00146458 0)
(1.06885 -0.000964127 0)
(1.06962 -0.000386951 0)
(1.06975 0.000222429 0)
(1.0692 0.000902973 0)
(1.06786 0.00166442 0)
(1.06567 0.00250077 0)
(1.06255 0.00341496 -9.35677e-22)
(1.0584 0.00441618 -9.36286e-22)
(1.05314 0.00551701 1.87525e-21)
(1.04664 0.0067355 -9.36959e-22)
(1.03877 0.00809655 7.10474e-26)
(1.02936 0.00963529 3.76666e-21)
(1.0182 0.0113986 -3.76596e-21)
(1.00502 0.0134513 0)
(0.989468 0.0158841 1.5173e-20)
(0.971092 0.0188235 -1.51718e-20)
(0.949279 0.0224524 1.9063e-21)
(0.923203 0.0270346 0)
(0.891737 0.0329646 7.33936e-20)
(0.853279 0.0408302 -1.51462e-20)
(0.80566 0.0515809 -4.68904e-20)
(0.745502 0.0665578 0)
(0.6687 0.0884084 -3.25869e-19)
(0.566858 0.1194 2.65633e-19)
(0.435617 0.169552 0)
(0.253344 0.2142 0)
(0.0899062 0.181468 1.78884e-19)
(-0.00978255 0.0278045 0)
(-0.0163328 0.00770326 -5.18873e-22)
(0.0124934 -0.0174593 9.10862e-20)
(0.0492546 -0.028822 0)
(0.0858715 -0.0250741 -4.68069e-20)
(0.10197 -0.0105076 1.88066e-19)
(0.100948 0.0114487 -9.39308e-20)
(0.0478645 0.0403534 4.79575e-20)
(-0.0447137 0.0731206 -1.01424e-20)
(-0.120841 0.0672659 -1.02633e-20)
(-0.154809 0.0289982 9.90401e-21)
(-0.146351 -0.0130141 0)
(-0.0844085 -0.0515771 3.42437e-21)
(-0.00206585 -0.0908728 1.24095e-21)
(0.153789 -0.116791 0)
(0.257193 -0.149654 0)
(0.532071 -0.154803 3.72383e-22)
(1 -4.01096e-05 0)
(1.00007 -0.000120326 0)
(1.0002 -0.000201832 0)
(1.0004 -0.000285198 0)
(1.00067 -0.000371365 0)
(1.00102 -0.00046119 0)
(1.00144 -0.000555506 0)
(1.00194 -0.000655151 0)
(1.00252 -0.000760935 0)
(1.0032 -0.000873636 0)
(1.00397 -0.000993983 0)
(1.00485 -0.00112263 0)
(1.00584 -0.00126014 0)
(1.00694 -0.00140693 0)
(1.00817 -0.00156326 0)
(1.00954 -0.00172915 0)
(1.01105 -0.00190437 0)
(1.01271 -0.00208834 0)
(1.01452 -0.00228005 0)
(1.0165 -0.00247804 0)
(1.01865 -0.00268027 0)
(1.02097 -0.00288411 0)
(1.02346 -0.0030862 0)
(1.02612 -0.00328248 0)
(1.02894 -0.00346811 0)
(1.03191 -0.00363754 0)
(1.03502 -0.00378446 0)
(1.03824 -0.00390209 0)
(1.04155 -0.00398299 0)
(1.04492 -0.00402014 0)
(1.04829 -0.0040048 0)
(1.05164 -0.00392887 0)
(1.0549 -0.00378651 0)
(1.05801 -0.00357116 0)
(1.06091 -0.0032778 0)
(1.06353 -0.00290196 2.33989e-22)
(1.06581 -0.0024407 -2.33976e-22)
(1.06767 -0.00188973 0)
(1.06902 -0.00124655 0)
(1.06981 -0.000511495 1.16911e-22)
(1.06998 0.000274954 -2.33838e-22)
(1.06945 0.00115351 1.16876e-22)
(1.06813 0.00213199 0)
(1.06596 0.00320601 -9.3495e-22)
(1.06286 0.00438008 9.35287e-22)
(1.05874 0.00566546 1.8719e-21)
(1.05351 0.00707833 9.38011e-22)
(1.04705 0.00864127 -3.74788e-21)
(1.03924 0.0103863 9.38386e-22)
(1.02989 0.0123571 1.87917e-21)
(1.01882 0.0146138 9.4115e-22)
(1.00575 0.0172377 -7.5545e-21)
(0.990359 0.0203434 7.55169e-21)
(0.972201 0.0240891 -1.61416e-20)
(0.9507 0.0287025 1.32896e-20)
(0.925075 0.0345101 3.06459e-20)
(0.894284 0.0419971 -3.83584e-20)
(0.856861 0.051879 1.54898e-20)
(0.810865 0.0652998 -4.71612e-20)
(0.75335 0.083862 3.14701e-20)
(0.680799 0.110699 -6.49971e-20)
(0.586762 0.148407 1.30539e-19)
(0.465636 0.208998 4.05356e-19)
(0.312869 0.265453 -1.39337e-19)
(0.12572 0.232429 -1.43872e-19)
(-0.00416696 0.0287055 -8.74799e-20)
(0.00647599 0.00360887 -1.75067e-19)
(0.0509941 -0.0268746 1.30926e-19)
(0.0977531 -0.0391568 -4.91941e-20)
(0.137807 -0.0318035 5.51645e-21)
(0.151986 -0.0103763 -4.49877e-20)
(0.142801 0.0220991 0)
(0.06992 0.0628253 4.59188e-20)
(-0.0491968 0.0858145 4.15963e-20)
(-0.103686 0.0780779 8.84766e-20)
(-0.114862 0.0280502 -2.17317e-20)
(-0.0873108 -0.0250001 8.16682e-21)
(-0.0106678 -0.0732218 -9.66204e-21)
(0.083383 -0.121358 0)
(0.243209 -0.15355 -4.78505e-22)
(0.35257 -0.192323 -1.95124e-22)
(0.617418 -0.197844 -1.78613e-22)
(1 -4.89492e-05 0)
(1.00006 -0.000146908 0)
(1.0002 -0.000246366 0)
(1.0004 -0.000348143 0)
(1.00067 -0.000453338 0)
(1.00101 -0.000563002 0)
(1.00143 -0.000678158 0)
(1.00193 -0.00079983 0)
(1.00252 -0.000929011 0)
(1.00319 -0.00106665 0)
(1.00396 -0.00121365 0)
(1.00483 -0.00137081 0)
(1.00582 -0.00153882 0)
(1.00692 -0.00171819 0)
(1.00815 -0.00190926 0)
(1.00951 -0.00211206 0)
(1.01102 -0.00232631 0)
(1.01267 -0.00255131 0)
(1.01449 -0.00278584 0)
(1.01647 -0.00302812 0)
(1.01861 -0.00327569 0)
(1.02093 -0.00352531 0)
(1.02342 -0.00377291 0)
(1.02608 -0.0040135 0)
(1.02891 -0.0042412 0)
(1.03189 -0.00444917 0)
(1.035 -0.00462973 0)
(1.03824 -0.00477455 0)
(1.04156 -0.0048745 0)
(1.04494 -0.00492094 0)
(1.04833 -0.00490324 0)
(1.05169 -0.00481143 0)
(1.05497 -0.00463823 0)
(1.0581 -0.00437565 0)
(1.06103 -0.00401749 0)
(1.06368 -0.00355829 0)
(1.06598 -0.00299429 0)
(1.06786 -0.00232061 0)
(1.06924 -0.00153554 5.84374e-23)
(1.07006 -0.000643956 -5.84541e-23)
(1.07026 0.000320485 0)
(1.06975 0.00139756 2.33743e-22)
(1.06846 0.00259292 -4.67334e-22)
(1.06632 0.00390416 1.16826e-21)
(1.06325 0.00533724 0)
(1.05917 0.00690554 -7.91105e-26)
(1.05398 0.00862839 -2.80811e-21)
(1.04757 0.0105334 2.80816e-21)
(1.03982 0.0126588 -5.62714e-21)
(1.03055 0.015057 -3.16148e-24)
(1.01958 0.0178001 -9.39931e-22)
(1.00665 0.0209861 5.65934e-21)
(0.991444 0.0247502 -7.53789e-21)
(0.973538 0.0292818 9.45941e-22)
(0.952389 0.0348491 1.521e-20)
(0.927264 0.0418361 -1.52051e-20)
(0.897195 0.0508127 0)
(0.860837 0.0626088 2.31969e-20)
(0.816421 0.0785416 -6.19649e-20)
(0.761337 0.100467 6.26067e-20)
(0.692319 0.131946 0)
(0.604331 0.176239 -1.2788e-19)
(0.489811 0.245793 -1.28176e-19)
(0.353011 0.312783 0)
(0.152027 0.277242 1.29645e-19)
(0.00322459 0.0254006 1.90787e-19)
(0.0345718 -0.00441186 -2.50384e-19)
(0.0983489 -0.0392303 8.28995e-20)
(0.157449 -0.050894 -5.22713e-21)
(0.20133 -0.038254 0)
(0.212892 -0.00822959 -8.68345e-20)
(0.193357 0.0373201 1.27985e-19)
(0.0977715 0.0912031 -4.33317e-20)
(-0.0160905 0.0527988 -5.15469e-19)
(-0.0521795 0.109236 9.16239e-20)
(-0.0738457 0.0796242 -1.21186e-20)
(-0.0591373 0.0190847 0)
(-0.0106344 -0.0431518 0)
(0.0811597 -0.0994158 -8.58754e-22)
(0.187363 -0.154661 2.33802e-21)
(0.350634 -0.191886 -1.19028e-21)
(0.465299 -0.234988 2.54447e-22)
(0.718048 -0.239304 9.16586e-23)
(1 -5.77524e-05 0)
(1.00006 -0.000173376 0)
(1.0002 -0.000290716 0)
(1.0004 -0.000410828 0)
(1.00067 -0.000534976 0)
(1.00101 -0.000664406 0)
(1.00143 -0.000800331 0)
(1.00192 -0.00094396 0)
(1.0025 -0.00109647 0)
(1.00318 -0.00125899 0)
(1.00394 -0.00143259 0)
(1.00481 -0.00161821 0)
(1.0058 -0.00181668 0)
(1.0069 -0.00202862 0)
(1.00812 -0.00225443 0)
(1.00948 -0.00249416 0)
(1.01098 -0.00274749 0)
(1.01264 -0.0030136 0)
(1.01445 -0.00329108 0)
(1.01642 -0.00357784 0)
(1.01857 -0.00387097 0)
(1.02089 -0.00416667 0)
(1.02338 -0.00446012 0)
(1.02604 -0.00474546 0)
(1.02887 -0.00501569 0)
(1.03186 -0.00526277 0)
(1.03498 -0.00547756 0)
(1.03823 -0.00565019 0)
(1.04156 -0.00576985 0)
(1.04496 -0.00582621 0)
(1.04837 -0.00580678 0)
(1.05176 -0.0056997 0)
(1.05506 -0.00549615 0)
(1.05822 -0.00518673 0)
(1.06117 -0.00476403 0)
(1.06385 -0.00422156 0)
(1.06618 -0.00355488 0)
(1.06809 -0.0027588 0)
(1.0695 -0.0018327 0)
(1.07035 -0.000785199 0)
(1.07059 0.000358018 0)
(1.07011 0.00163364 0)
(1.06885 0.00304579 0)
(1.06675 0.00459363 0)
(1.06371 0.00628463 -4.66934e-22)
(1.05968 0.00813444 4.67805e-22)
(1.05454 0.0101653 1.10856e-24)
(1.04819 0.0124093 -9.34984e-22)
(1.0405 0.0149107 -1.45371e-24)
(1.03133 0.017731 5.62231e-21)
(1.02048 0.0209527 3.75814e-21)
(1.00771 0.0246898 -1.87533e-21)
(0.992712 0.0290975 7.54356e-21)
(0.97509 0.0343931 -7.53609e-21)
(0.954327 0.0408831 0)
(0.929739 0.0490061 0)
(0.900426 0.0594055 3.80526e-21)
(0.865147 0.0730233 8.59962e-21)
(0.822263 0.09134 -2.3065e-20)
(0.769438 0.116475 -1.59545e-20)
(0.703508 0.15238 4.80056e-22)
(0.62047 0.203242 -3.06771e-20)
(0.511643 0.280719 -6.02217e-20)
(0.385016 0.357118 0)
(0.175963 0.319464 0)
(0.0127886 0.0175834 -1.74677e-19)
(0.0687943 -0.0170023 1.49215e-19)
(0.155192 -0.0550284 -9.98816e-21)
(0.228559 -0.0642592 2.50587e-21)
(0.276371 -0.0444504 4.09412e-20)
(0.284476 -0.00394763 -1.25617e-19)
(0.252556 0.0571234 8.12641e-20)
(0.133214 0.125905 -2.05167e-20)
(-0.033797 0.0887331 9.83707e-20)
(-0.0486497 0.116501 2.95898e-20)
(-0.0278885 0.0716262 1.24234e-20)
(0.0126709 0.00251839 0)
(0.08247 -0.0669916 0)
(0.189158 -0.129762 -1.27925e-21)
(0.30727 -0.190514 -5.98621e-22)
(0.473148 -0.23141 0)
(0.591771 -0.277214 0)
(0.830373 -0.278796 -1.5227e-22)
(1 -6.65134e-05 0)
(1.00006 -0.00019971 0)
(1.0002 -0.000334848 0)
(1.0004 -0.000473206 0)
(1.00066 -0.000616222 0)
(1.001 -0.000765331 0)
(1.00142 -0.000921939 0)
(1.00191 -0.00108744 0)
(1.00249 -0.00126321 0)
(1.00316 -0.00145053 0)
(1.00392 -0.00165065 0)
(1.00479 -0.00186468 0)
(1.00577 -0.00209357 0)
(1.00686 -0.00233806 0)
(1.00809 -0.0025986 0)
(1.00944 -0.00287528 0)
(1.01094 -0.00316776 0)
(1.01259 -0.00347509 0)
(1.0144 -0.00379567 0)
(1.01637 -0.00412712 0)
(1.01852 -0.00446609 0)
(1.02083 -0.0048082 0)
(1.02333 -0.00514794 0)
(1.02599 -0.00547851 0)
(1.02883 -0.00579186 0)
(1.03182 -0.00607867 0)
(1.03496 -0.00632841 0)
(1.03822 -0.00652959 0)
(1.04157 -0.00666973 0)
(1.04499 -0.00673676 0)
(1.04842 -0.00671637 0)
(1.05183 -0.00659473 0)
(1.05516 -0.00636141 0)
(1.05835 -0.00600563 0)
(1.06134 -0.0055187 0)
(1.06405 -0.00489318 0)
(1.06641 -0.00412398 0)
(1.06836 -0.00320584 0)
(1.0698 -0.00213945 0)
(1.0707 -0.000936167 0)
(1.07097 0.000386397 1.16883e-22)
(1.07053 0.00186043 -1.16801e-22)
(1.06931 0.00348904 0)
(1.06724 0.00527278 -4.66755e-22)
(1.06426 0.00722076 4.67072e-22)
(1.06027 0.00935013 -2.80157e-21)
(1.05518 0.0116867 9.34248e-22)
(1.0489 0.0142662 1.454e-24)
(1.0413 0.0171394 -1.86915e-21)
(1.03224 0.020375 -1.87224e-21)
(1.02152 0.0240674 7.50006e-21)
(1.00893 0.0283431 -1.12524e-20)
(0.994159 0.0333785 0)
(0.976846 0.0394155 0)
(0.956502 0.0467969 0)
(0.932489 0.0560109 7.57103e-21)
(0.903967 0.0677695 -1.13371e-20)
(0.869795 0.0831204 -9.47818e-22)
(0.828459 0.1037 7.58805e-21)
(0.777854 0.131895 -3.79569e-20)
(0.71495 0.172019 2.99827e-20)
(0.636537 0.229256 1.48735e-20)
(0.533695 0.31398 5.75078e-20)
(0.415008 0.398656 0)
(0.201688 0.356955 -8.79424e-22)
(0.0252884 0.00519445 1.48363e-19)
(0.111068 -0.034865 -6.73049e-20)
(0.223307 -0.0748909 4.84855e-20)
(0.312126 -0.0794962 2.43209e-21)
(0.363698 -0.0505143 3.9729e-20)
(0.367603 0.00234795 8.20391e-20)
(0.321788 0.0812466 -3.97681e-20)
(0.177429 0.165658 -1.37599e-19)
(-0.0327783 0.0859039 5.39758e-22)
(-0.0265896 0.10694 0)
(0.0301443 0.0558283 0)
(0.097153 -0.0192136 5.18267e-21)
(0.188903 -0.0951292 -1.11516e-20)
(0.310662 -0.163341 2.76841e-21)
(0.440113 -0.228303 1.37406e-21)
(0.607529 -0.271499 0)
(0.728278 -0.318447 -1.89035e-22)
(0.950566 -0.315874 0)
(1 -7.52253e-05 0)
(1.00006 -0.000225891 0)
(1.0002 -0.000378729 0)
(1.00039 -0.000535232 0)
(1.00066 -0.000697014 0)
(1.001 -0.000865702 0)
(1.00141 -0.0010429 0)
(1.0019 -0.00123018 0)
(1.00248 -0.0014291 0)
(1.00314 -0.00164115 0)
(1.0039 -0.00186772 0)
(1.00477 -0.00211009 0)
(1.00574 -0.00236935 0)
(1.00683 -0.00264634 0)
(1.00805 -0.00294162 0)
(1.0094 -0.00325529 0)
(1.01089 -0.00358697 0)
(1.01254 -0.00393564 0)
(1.01434 -0.0042995 0)
(1.01631 -0.00467587 0)
(1.01845 -0.00506099 0)
(1.02077 -0.00544993 0)
(1.02327 -0.00583642 0)
(1.02594 -0.00621281 0)
(1.02878 -0.00656994 0)
(1.03178 -0.00689724 0)
(1.03493 -0.00718273 0)
(1.0382 -0.00741333 0)
(1.04158 -0.00757486 0)
(1.04501 -0.00765342 0)
(1.04848 -0.00763294 0)
(1.05192 -0.00749759 0)
(1.05528 -0.00723517 0)
(1.05851 -0.00683358 0)
(1.06153 -0.00628283 0)
(1.06428 -0.00557454 0)
(1.06668 -0.00470304 1.45987e-23)
(1.06867 -0.00366328 -1.46023e-23)
(1.07016 -0.00245714 0)
(1.07109 -0.0010979 0)
(1.07141 0.000404394 0)
(1.07101 0.00207655 0)
(1.06983 0.0039213 -2.33498e-22)
(1.06781 0.0059402 1.1668e-21)
(1.06487 0.00814374 -9.33225e-22)
(1.06094 0.0105512 1.86663e-21)
(1.05592 0.0131905 1.86664e-21)
(1.04971 0.016102 2.96116e-25)
(1.04221 0.0193419 -1.86992e-21)
(1.03326 0.0229865 1.86807e-21)
(1.0227 0.0271395 -3.74251e-21)
(1.01029 0.0319419 1.87317e-20)
(0.99578 0.0375871 -3.74436e-21)
(0.978803 0.0443417 3.75952e-21)
(0.95891 0.0525811 -3.75099e-21)
(0.935509 0.0628378 1.50364e-20)
(0.907826 0.0758908 1.55136e-20)
(0.874826 0.0928799 1.45653e-20)
(0.835122 0.115584 0)
(0.786858 0.146643 -2.23552e-20)
(0.727251 0.190672 2.94613e-20)
(0.653798 0.253786 1.30072e-19)
(0.55796 0.345142 -2.21308e-19)
(0.447107 0.43759 0)
(0.233546 0.390315 8.44481e-22)
(0.0426367 -0.011842 5.67216e-20)
(0.166523 -0.0596965 1.92109e-20)
(0.306474 -0.0997843 -3.84354e-20)
(0.410257 -0.0968698 -9.67251e-21)
(0.465055 -0.0567439 -6.9158e-20)
(0.4648 0.00986422 -2.05214e-19)
(0.406851 0.108561 1.98657e-19)
(0.239289 0.210004 0)
(-0.0252642 0.0783806 2.49808e-20)
(0.00433304 0.0926209 -2.54284e-20)
(0.0947327 0.035967 5.55453e-21)
(0.191153 -0.0445329 -5.54288e-21)
(0.306258 -0.126524 2.16573e-21)
(0.44342 -0.199335 -8.03989e-22)
(0.583274 -0.267342 -7.15559e-22)
(0.750607 -0.311433 -3.98488e-22)
(0.871275 -0.358039 3.7687e-22)
(1.07468 -0.350064 -1.0253e-23)
(1 -8.38807e-05 0)
(1.00006 -0.0002519 0)
(1.00019 -0.000422324 0)
(1.00039 -0.000596857 0)
(1.00065 -0.000777291 0)
(1.00099 -0.000965446 0)
(1.0014 -0.00116311 0)
(1.00189 -0.00137207 0)
(1.00246 -0.00159404 0)
(1.00312 -0.00183071 0)
(1.00388 -0.00208365 0)
(1.00474 -0.00235428 0)
(1.0057 -0.00264385 0)
(1.00679 -0.00295332 0)
(1.008 -0.00328332 0)
(1.00935 -0.00363401 0)
(1.01084 -0.00400498 0)
(1.01248 -0.00439512 0)
(1.01428 -0.00480246 0)
(1.01625 -0.00522402 0)
(1.01839 -0.00565565 0)
(1.0207 -0.00609185 0)
(1.0232 -0.00652565 0)
(1.02588 -0.0069485 0)
(1.02872 -0.00735016 0)
(1.03174 -0.0077188 0)
(1.0349 -0.00804097 0)
(1.03819 -0.00830199 0)
(1.04158 -0.00848592 0)
(1.04505 -0.00857699 0)
(1.04854 -0.00855745 0)
(1.05201 -0.00840935 0)
(1.05541 -0.00811861 0)
(1.05868 -0.00767184 0)
(1.06174 -0.00705776 0)
(1.06454 -0.00626704 0)
(1.06699 -0.00529354 0)
(1.06902 -0.00413257 0)
(1.07056 -0.00278709 0)
(1.07154 -0.00127151 0)
(1.0719 0.000410667 1.16846e-22)
(1.07155 0.00228072 -1.16749e-22)
(1.07042 0.00434112 0)
(1.06845 0.00659438 9.32924e-22)
(1.06556 0.00905226 9.32758e-22)
(1.06169 0.0117355 2.33148e-21)
(1.05674 0.0146749 -1.39823e-21)
(1.05062 0.0179144 -1.86526e-21)
(1.04322 0.0215153 -1.38953e-24)
(1.0344 0.0255612 9.32755e-22)
(1.024 0.0301652 0)
(1.01181 0.0354805 -7.47734e-21)
(0.99757 0.0417175 0)
(0.980957 0.0491642 -1.49682e-20)
(0.961549 0.0582251 0)
(0.938804 0.0694747 -1.54499e-20)
(0.912022 0.0837471 -1.45055e-20)
(0.880277 0.102267 -4.48083e-20)
(0.842351 0.126924 -4.46527e-20)
(0.796669 0.160569 4.42661e-20)
(0.740855 0.208007 -8.72739e-20)
(0.673198 0.276087 -5.65148e-20)
(0.586101 0.373151 1.63794e-19)
(0.485657 0.474949 0)
(0.276022 0.421323 -2.0129e-19)
(0.0696048 -0.0342956 0)
(0.246451 -0.0961361 0)
(0.410572 -0.130877 0)
(0.525566 -0.116524 0)
(0.582347 -0.063494 3.96964e-20)
(0.5791 0.0170514 1.24687e-19)
(0.516151 0.136929 -2.03017e-19)
(0.330262 0.250976 2.74518e-19)
(-0.0142765 0.0676039 1.32959e-20)
(0.0421254 0.0746226 -1.09331e-20)
(0.167066 0.011697 1.74388e-20)
(0.295225 -0.0738532 -7.39145e-21)
(0.434479 -0.161061 2.24726e-21)
(0.586434 -0.237322 7.73236e-22)
(0.734846 -0.306981 6.85468e-24)
(0.899542 -0.350505 5.12993e-22)
(1.01737 -0.395255 -1.77998e-22)
(1.19885 -0.380853 1.75024e-22)
(1 -9.24727e-05 0)
(1.00006 -0.000277715 0)
(1.00019 -0.0004656 0)
(1.00039 -0.000658035 0)
(1.00065 -0.000856992 0)
(1.00098 -0.00106449 0)
(1.00139 -0.0012825 0)
(1.00187 -0.00151301 0)
(1.00244 -0.00175792 0)
(1.0031 -0.0020191 0)
(1.00385 -0.0022983 0)
(1.0047 -0.00259711 0)
(1.00567 -0.00291692 0)
(1.00675 -0.00325884 0)
(1.00795 -0.00362355 0)
(1.00929 -0.00401129 0)
(1.01078 -0.00442163 0)
(1.01241 -0.00485338 0)
(1.01421 -0.00530441 0)
(1.01617 -0.00577147 0)
(1.01831 -0.00625 0)
(1.02063 -0.00673397 0)
(1.02313 -0.00721569 0)
(1.02581 -0.00768573 0)
(1.02866 -0.00813277 0)
(1.03168 -0.00854369 0)
(1.03486 -0.00890359 0)
(1.03817 -0.00919613 0)
(1.04159 -0.00940361 0)
(1.04508 -0.00950831 0)
(1.04861 -0.00949086 0)
(1.05212 -0.00933109 0)
(1.05556 -0.00901289 0)
(1.05887 -0.0085217 0)
(1.06198 -0.00784484 0)
(1.06483 -0.00697211 0)
(1.06732 -0.00589695 0)
(1.0694 -0.00461518 0)
(1.071 -0.00313057 0)
(1.07204 -0.00145815 0)
(1.07245 0.000403998 0)
(1.07215 0.00247154 0)
(1.07107 0.00474706 9.33045e-22)
(1.06916 0.00723382 -9.32586e-22)
(1.06633 0.00994457 9.32081e-22)
(1.06252 0.0129015 -2.33005e-21)
(1.05765 0.0161377 4.65673e-22)
(1.05163 0.0197009 1.86379e-21)
(1.04434 0.0236572 4.65998e-21)
(1.03566 0.0280964 6.52467e-21)
(1.02543 0.0331401 -1.86681e-21)
(1.01347 0.0389541 1.86357e-21)
(0.999528 0.0457623 0)
(0.983303 0.0538732 6.79918e-24)
(0.964414 0.0637175 0)
(0.942374 0.0759032 -2.98269e-20)
(0.916559 0.091312 -2.97797e-20)
(0.886173 0.111235 2.97216e-20)
(0.850186 0.137641 2.95749e-20)
(0.807372 0.173513 -7.32262e-20)
(0.755899 0.223691 5.77591e-20)
(0.695055 0.295409 1.87066e-19)
(0.618772 0.396479 -8.54464e-20)
(0.535439 0.512332 -2.62794e-20)
(0.332693 0.438127 1.12436e-18)
(0.0354643 -0.0295448 -1.51082e-18)
(0.125389 -0.0740472 1.20143e-18)
(0.362075 -0.146992 0)
(0.539646 -0.168097 -2.93283e-20)
(0.659194 -0.138161 3.81267e-20)
(0.715737 -0.0707901 -1.99651e-20)
(0.711154 0.0232884 6.25528e-20)
(0.647702 0.158328 4.07796e-20)
(0.486141 0.350207 4.61404e-19)
(0.200005 0.248086 -2.1452e-18)
(0.000782006 0.05329 -1.30753e-20)
(0.0934221 0.05118 2.37795e-20)
(0.254059 -0.0189886 -5.59587e-21)
(0.413638 -0.10855 4.86233e-21)
(0.575648 -0.199168 0)
(0.73968 -0.277075 2.95453e-21)
(0.893633 -0.346616 1.15449e-21)
(1.05154 -0.387889 -5.92617e-22)
(1.16316 -0.429275 0)
(1.31948 -0.407766 -1.71268e-22)
(1 -0.000100994 0)
(1.00006 -0.000303317 0)
(1.00019 -0.000508522 0)
(1.00038 -0.000718718 0)
(1.00064 -0.000936058 0)
(1.00097 -0.00116275 0)
(1.00138 -0.00140098 0)
(1.00186 -0.00165289 0)
(1.00242 -0.00192061 0)
(1.00307 -0.00220618 0)
(1.00382 -0.00251153 0)
(1.00467 -0.00283843 0)
(1.00562 -0.00318842 0)
(1.0067 -0.00356272 0)
(1.0079 -0.00396214 0)
(1.00923 -0.00438696 0)
(1.01071 -0.00483676 0)
(1.01234 -0.00531028 0)
(1.01413 -0.00580524 0)
(1.01609 -0.00631812 0)
(1.01823 -0.00684399 0)
(1.02054 -0.00737627 0)
(1.02304 -0.00790659 0)
(1.02573 -0.00842462 0)
(1.02859 -0.00891798 0)
(1.03163 -0.00937224 0)
(1.03482 -0.00977103 0)
(1.03815 -0.0100963 0)
(1.0416 -0.0103286 0)
(1.04512 -0.0104482 0)
(1.04868 -0.0104341 0)
(1.05223 -0.0102639 0)
(1.05572 -0.00991923 0)
(1.05908 -0.00938444 0)
(1.06224 -0.00864544 0)
(1.06514 -0.00769118 0)
(1.0677 -0.00651472 0)
(1.06983 -0.0051125 0)
(1.07149 -0.00348886 0)
(1.07258 -0.00165903 0)
(1.07305 0.000382986 5.84046e-23)
(1.0728 0.00264783 -5.83469e-23)
(1.07178 0.00513794 -9.32795e-22)
(1.06993 0.00785718 9.31995e-22)
(1.06717 0.0108192 -1.86312e-21)
(1.06344 0.0140476 1.86216e-21)
(1.05865 0.0175772 0)
(1.05272 0.0214593 0)
(1.04556 0.0257642 -6.51455e-21)
(1.03703 0.0305881 -9.32047e-22)
(1.02699 0.0360606 -8.3782e-21)
(1.01527 0.0423573 9.30011e-22)
(1.00165 0.0497154 -9.32244e-22)
(0.985838 0.0584609 1.4892e-20)
(0.967503 0.0690461 9.2882e-22)
(0.946213 0.0821074 5.94638e-20)
(0.921432 0.0985617 3.06126e-20)
(0.892496 0.119746 -9.21958e-22)
(0.858598 0.14767 -5.87482e-20)
(0.818877 0.185375 5.83185e-20)
(0.772143 0.237578 -5.73715e-20)
(0.718732 0.311568 -9.84498e-20)
(0.654904 0.414264 -1.36392e-20)
(0.591151 0.541507 0)
(0.431482 0.541037 -1.39575e-18)
(0.170713 0.260357 1.0531e-18)
(0.119399 -0.0915838 3.40134e-19)
(0.27909 -0.15991 0)
(0.509814 -0.207293 -3.96966e-20)
(0.690057 -0.208268 6.60756e-20)
(0.808618 -0.160702 0)
(0.862421 -0.0780113 0)
(0.856375 0.0300248 2.0685e-20)
(0.788318 0.179884 -5.91732e-20)
(0.706353 0.386886 0)
(0.444847 0.418365 0)
(0.0244843 0.0349244 -5.07964e-20)
(0.172278 0.0176933 -2.88034e-20)
(0.366215 -0.0588027 0)
(0.552393 -0.149865 5.48421e-22)
(0.73233 -0.241028 7.10174e-21)
(0.90318 -0.318157 -2.94395e-21)
(1.05813 -0.385429 7.38874e-23)
(1.20361 -0.422583 0)
(1.30543 -0.459279 0)
(1.4332 -0.430328 0)
(1 -0.000109439 0)
(1.00006 -0.000328686 0)
(1.00019 -0.000551058 0)
(1.00038 -0.000778858 0)
(1.00064 -0.00101443 0)
(1.00097 -0.00126017 0)
(1.00137 -0.00151845 0)
(1.00184 -0.00179163 0)
(1.0024 -0.00208201 0)
(1.00305 -0.00239184 0)
(1.00379 -0.00272321 0)
(1.00463 -0.00307809 0)
(1.00558 -0.00345816 0)
(1.00664 -0.0038648 0)
(1.00784 -0.00429891 0)
(1.00916 -0.00476085 0)
(1.01063 -0.0052502 0)
(1.01226 -0.00576566 0)
(1.01404 -0.0063048 0)
(1.016 -0.00686387 0)
(1.01813 -0.00743754 0)
(1.02045 -0.00801874 0)
(1.02295 -0.0085984 0)
(1.02564 -0.00916531 0)
(1.02851 -0.009706 0)
(1.03156 -0.0102048 0)
(1.03477 -0.0106437 0)
(1.03813 -0.0110031 0)
(1.0416 -0.0112617 0)
(1.04516 -0.0113976 0)
(1.04876 -0.0113882 0)
(1.05236 -0.0112088 0)
(1.05589 -0.0108388 0)
(1.05931 -0.0102614 0)
(1.06253 -0.00946096 0)
(1.06549 -0.00842569 0)
(1.0681 -0.00714833 0)
(1.0703 -0.00562594 0)
(1.07202 -0.00386326 0)
(1.07318 -0.00187539 0)
(1.0737 0.000346389 0)
(1.07352 0.00280825 0)
(1.07256 0.00551241 9.32319e-22)
(1.07077 0.00846322 -8.1522e-22)
(1.06808 0.0116749 1.74562e-21)
(1.06443 0.0151719 -2.09376e-21)
(1.05973 0.0189915 6.97712e-22)
(1.05391 0.0231874 2.7889e-21)
(1.04687 0.0278344 4.18339e-21)
(1.03851 0.0330337 9.28134e-22)
(1.02868 0.0389224 7.43842e-21)
(1.01721 0.0456851 -1.5793e-20)
(1.00392 0.0535705 0)
(0.988555 0.0629184 1.48519e-20)
(0.970807 0.0741999 2.8747e-20)
(0.950308 0.0880717 -2.96529e-20)
(0.926615 0.105476 3.04701e-20)
(0.899208 0.127773 -2.85027e-20)
(0.867501 0.156982 5.76491e-20)